<?xml version="1.0"?>
<VTKFile type="PolyData" version="1.0" byte_order="LittleEndian" header_type="UInt64">
  <PolyData>
    <Piece NumberOfPoints="231" NumberOfVerts="231" NumberOfLines="0" NumberOfStrips="0" NumberOfPolys="0">
      <PointData>
        <DataArray type="Int32" Name="id" format="ascii" RangeMin="1" RangeMax="234">
          15 42 50 68 69 14
          13 40 51 78 100 102
          76 77 32 88 52 54
          56 11 10 53 55 12
          63 109 57 62 111 39
          24 7 75 37 4 73
          79 104 74 86 80 103
          105 70 49 67 71 3
          41 19 20 1 30 101
          33 90 31 35 89 64
          65 47 98 93 91 92
          108 48 61 107 113 110
          18 22 9 38 23 6
          8 59 85 81 5 87
          72 94 95 96 29 21
          2 28 44 66 45 34
          36 46 97 106 112 114
          99 26 25 17 16 58
          82 83 60 84 43 27
          213 228 212 211 131 227
          226 125 124 219 217 150
          148 188 138 136 187 234
          205 206 232 180 167 130
          132 142 144 126 195 128
          127 129 218 200 149 189
          137 199 201 207 233 202
          204 152 151 174 203 133
          135 172 178 134 166 173
          179 153 193 168 161 224
          223 230 160 156 194 229
          182 146 143 225 122 154
          162 155 123 197 165 163
          119 181 121 214 216 116
          209 115 222 140 231 184
          145 176 210 186 175 183
          208 192 147 198 164 196
          157 158 185 215 190 118
          120 117 139 220 191 159
          170 141 177
        </DataArray>
        <DataArray type="Int32" Name="type" format="ascii" RangeMin="1" RangeMax="1">
          1 1 1 1 1 1
          1 1 1 1 1 1
          1 1 1 1 1 1
          1 1 1 1 1 1
          1 1 1 1 1 1
          1 1 1 1 1 1
          1 1 1 1 1 1
          1 1 1 1 1 1
          1 1 1 1 1 1
          1 1 1 1 1 1
          1 1 1 1 1 1
          1 1 1 1 1 1
          1 1 1 1 1 1
          1 1 1 1 1 1
          1 1 1 1 1 1
          1 1 1 1 1 1
          1 1 1 1 1 1
          1 1 1 1 1 1
          1 1 1 1 1 1
          1 1 1 1 1 1
          1 1 1 1 1 1
          1 1 1 1 1 1
          1 1 1 1 1 1
          1 1 1 1 1 1
          1 1 1 1 1 1
          1 1 1 1 1 1
          1 1 1 1 1 1
          1 1 1 1 1 1
          1 1 1 1 1 1
          1 1 1 1 1 1
          1 1 1 1 1 1
          1 1 1 1 1 1
          1 1 1 1 1 1
          1 1 1 1 1 1
          1 1 1 1 1 1
          1 1 1 1 1 1
          1 1 1 1 1 1
          1 1 1 1 1 1
          1 1 1
        </DataArray>
        <DataArray type="Float64" Name="mass" format="ascii" RangeMin="7.5" RangeMax="7.5">
          7.5 7.5 7.5 7.5 7.5 7.5
          7.5 7.5 7.5 7.5 7.5 7.5
          7.5 7.5 7.5 7.5 7.5 7.5
          7.5 7.5 7.5 7.5 7.5 7.5
          7.5 7.5 7.5 7.5 7.5 7.5
          7.5 7.5 7.5 7.5 7.5 7.5
          7.5 7.5 7.5 7.5 7.5 7.5
          7.5 7.5 7.5 7.5 7.5 7.5
          7.5 7.5 7.5 7.5 7.5 7.5
          7.5 7.5 7.5 7.5 7.5 7.5
          7.5 7.5 7.5 7.5 7.5 7.5
          7.5 7.5 7.5 7.5 7.5 7.5
          7.5 7.5 7.5 7.5 7.5 7.5
          7.5 7.5 7.5 7.5 7.5 7.5
          7.5 7.5 7.5 7.5 7.5 7.5
          7.5 7.5 7.5 7.5 7.5 7.5
          7.5 7.5 7.5 7.5 7.5 7.5
          7.5 7.5 7.5 7.5 7.5 7.5
          7.5 7.5 7.5 7.5 7.5 7.5
          7.5 7.5 7.5 7.5 7.5 7.5
          7.5 7.5 7.5 7.5 7.5 7.5
          7.5 7.5 7.5 7.5 7.5 7.5
          7.5 7.5 7.5 7.5 7.5 7.5
          7.5 7.5 7.5 7.5 7.5 7.5
          7.5 7.5 7.5 7.5 7.5 7.5
          7.5 7.5 7.5 7.5 7.5 7.5
          7.5 7.5 7.5 7.5 7.5 7.5
          7.5 7.5 7.5 7.5 7.5 7.5
          7.5 7.5 7.5 7.5 7.5 7.5
          7.5 7.5 7.5 7.5 7.5 7.5
          7.5 7.5 7.5 7.5 7.5 7.5
          7.5 7.5 7.5 7.5 7.5 7.5
          7.5 7.5 7.5 7.5 7.5 7.5
          7.5 7.5 7.5 7.5 7.5 7.5
          7.5 7.5 7.5 7.5 7.5 7.5
          7.5 7.5 7.5 7.5 7.5 7.5
          7.5 7.5 7.5 7.5 7.5 7.5
          7.5 7.5 7.5 7.5 7.5 7.5
          7.5 7.5 7.5
        </DataArray>
        <DataArray type="Float64" Name="v" NumberOfComponents="3" format="ascii" RangeMin="0.001306208012" RangeMax="3.8626877576">
          0.00079289239096 -0.0019595367668 -0.0022710781951 0.43252081586 0.045216214325 0.20064657636
          -0.099397180967 -0.40070025302 -0.38273133944 0.027076016362 -0.078402680451 0.0094071787935
          -0.013289095216 0.016242484145 0.05425150076 0.0040301138895 0.0010482313548 9.4208941843e-05
          0.0039154052092 -0.0020742812144 -0.0021248508493 0.078213014171 0.044488548295 0.29983973489
          -0.0097024768033 -0.29235797173 -0.12762097036 0.00074977405717 0.27712259248 0.14679366907
          0.023439958211 0.058889773597 0.070771410907 0.010370953298 0.031147979283 0.0707682405
          -0.28762477302 0.28242017324 0.22102412963 -0.28303555379 0.57078624268 0.25430767994
          -0.22653704293 -0.039544466864 -0.039322276305 0.10346272397 0.022285417461 0.10462453881
          -0.23478439921 -0.47495046068 -0.10827424684 -0.21158351401 -0.31795289475 -0.46391588446
          -0.27718936359 0.064564649057 0.10756184012 -0.084923484718 -0.011993069771 0.060645519325
          -0.0889390657 -0.010351028766 -0.10686875538 -0.38506916581 -0.45965356366 -0.45025577786
          -0.29070079548 0.23792353042 -0.090868534424 -0.094003125815 -0.015333206645 -0.11189960993
          -0.017580245332 0.007954071638 -0.098723917236 0.15585294763 -0.055500328677 -0.25309281106
          -0.46461651445 0.22487290768 -0.20754253965 0.20686000019 0.083730016316 -0.16534938882
          0.11814098304 -0.08832731839 -0.079671051671 0.08011658952 0.028239609994 -0.057886447747
          0.11253965278 -0.0096232477181 0.071482161761 -0.080197538906 0.061186187073 -0.17585021397
          0.022910703206 0.27374087919 -0.070409429624 0.048227526956 0.026720310334 -0.042231153069
          -0.041647147592 -0.050232610005 -0.021025440513 -0.030097104012 0.12355232681 -0.062299814519
          0.19863721605 0.22778414746 0.051999430497 0.00093466127578 -0.00074566578066 -0.00052589943319
          -0.17937890934 0.17935673658 -0.23398176193 0.14518261936 0.022031611568 0.10600941594
          0.22959797956 0.26448091131 -0.079198218103 0.0010449193417 -0.00064929937486 0.00045749139038
          0.0011414892389 -0.00075932967816 0.00020307417597 -0.33207356022 -0.81923261055 0.042689075408
          -0.11241542792 -0.29806659466 -0.099476236395 -0.010604829002 -0.022271521899 0.036187411997
          -0.17043926923 -0.64450636674 0.60739097052 -0.45087593439 0.44918468013 -0.0076286769462
          0.47413654634 -0.16550411121 0.42120175753 0.51523852806 0.072170783239 -0.43927525655
          0.66696925453 -0.037139414716 0.19880194871 -0.027580639055 0.53018177003 0.078305131556
          -0.10308381069 0.096238537818 -0.23977464875 0.04686637991 0.097294725749 0.06354300381
          0.47170274091 0.016462919449 -0.0045234237481 0.4877400757 0.075050521978 -0.36689579343
          -0.038911769431 -0.19792600774 -0.020216397994 0.38281463309 -0.13839721506 0.091665277914
          0.10950337933 -0.047530714636 0.17854940931 0.32475039343 0.39926460447 -0.70441981676
          0.36931018641 0.29730596424 -0.29263149124 -0.30251337885 0.35637421243 -1.9030389397
          0.22585092281 -0.27373153813 -0.13463028312 0.3461342485 0.90623349281 -0.033677975121
          0.35976592526 0.77723313629 -0.59758887837 0.32317814849 0.83360864697 0.33887939467
          0.33133900307 0.2824582607 -0.11951299053 -1.458643773 0.46136357617 -1.7480206152
          -0.048627283119 0.12351110887 -0.31038003727 0.24754585877 0.23703376007 0.1180538706
          -0.19778537733 0.24780843826 0.37215963928 0.28505437819 -0.10272374188 -0.2962848353
          -0.13446117966 0.31001028466 0.029290451241 0.11675832379 0.12664913118 0.055624389192
          -0.40161916061 0.13520239657 -0.11213882081 0.13745435283 0.0060401469173 -0.012998169533
          -0.11104700057 0.14892686996 -0.058644557013 -0.13126695627 -0.086694115783 0.027663761139
          -0.15094587986 0.06521635237 -0.4832098564 -0.25567296851 0.061108093848 -0.011469833729
          0.5055243701 0.32992440331 -0.13266071762 0.047716121934 0.24560055984 0.056710032502
          -0.076630098244 -0.083159482904 -0.034847225657 -0.012563049874 0.53435196721 -0.27378258717
          -0.38441551551 -0.36025053337 0.1227232456 -0.11466764366 0.1108620389 0.80435732142
          -0.71370023378 0.48361622974 0.51291832605 0.24053558019 0.089338985048 -0.041900010871
          0.53296877818 -0.68738264197 -1.1250654685 -0.28162381743 0.20850466212 -1.5904393524
          0.085892584177 0.35802839936 0.27952024662 0.20298952245 -0.24494994895 -0.74126076968
          0.092847101601 1.1028809181 -1.4412604043 -0.18254326713 0.64916555885 -0.49040696377
          0.23540107666 -1.1005009061 -0.4932425848 0.14457651779 0.069867761241 -0.06802496278
          0.10006121022 0.340099799 -0.0085493641714 -0.39380501439 0.36775513656 -2.1271240515
          0.53272947131 0.21860041043 -0.10735841108 0.16856890655 0.1580892768 0.091654825041
          -0.14372250698 0.32035216762 0.38975255904 0.022693412487 0.69009244663 0.37890284648
          0.44640885662 0.282845658 -0.67892334645 -0.40500567387 0.28836773544 -0.76059551427
          -0.19143846663 0.30763186836 -0.65960581656 -0.1724877125 0.4720598751 -0.14685201592
          -0.16381165468 0.42417874685 -0.026779769076 -0.23693409316 -0.15293363037 0.099374386581
          -0.15529577524 1.6480999594 -1.2862477588 -0.14007780189 1.1971765718 -0.30410078295
          -0.43991268287 -0.1741715967 0.25040341122 -0.36851554087 -0.06947816026 -0.70053158619
          0.29311836953 -0.951442056 -1.2958810863 -0.81304401804 0.24458956302 -0.95021154904
          -0.22675645402 -0.12023141829 -3.6656348544 -0.14957197093 -0.45026904614 -2.9556723821
          -0.20773758835 -0.30210898339 -3.8452479724 -0.45575454339 -0.073039217875 -3.4082135985
          -0.60606934272 0.20179964407 -2.1091171199 0.40790496773 -0.40559010872 -2.4838193132
          -0.13301405958 -1.0498503278 -1.9389708958 0.082213217175 0.27831488771 -1.4007872047
          -0.39277250432 0.20355327752 -2.4225045478 0 0 -3.44160965
          0 0 -3.44160965 0.032414782597 -0.79791689386 -0.56755409147
          -0.19191507535 -0.73857940545 -2.5749257319 0 0 -3.44160965
          0.49723027722 0.1172156447 -2.1781549699 0.68494037112 -0.2619674317 -2.4253907334
          0 0 -3.44160965 0.39679846758 0.15788174009 0.26092941044
          0.36205152015 0.52001648674 -1.4500060288 0.28020316575 0.20550091043 -1.254915563
          0.39902809351 0.22016704721 0.95394128986 0 0 -3.44160965
          0 0 -3.44160965 -0.38956451185 -0.082197258411 -2.6415184979
          -0.22205972957 0.10209857777 -2.7533787651 -0.50306431869 -0.26428569294 -3.4180582965
          -0.55894938417 -0.28899375219 -3.4487185073 0.46594145919 0.1656946961 -2.8938889949
          0.13995516272 0.16616160957 -3.5382089482 0.55187419462 -0.026505703207 -3.6964080094
          0.48173841409 0.14290622225 -3.4177134962 0.39480861882 0.028720150954 -3.5220432419
          0 0 -3.44160965 -0.061770981921 -0.93694334303 -1.4670957591
          -0.27355639935 1.1678677313 -2.4910392388 0 0 -3.44160965
          0.86125782812 -0.49245900062 -2.2058806715 0.20609046048 -0.45707944462 -2.1253123878
          0.41890539405 0.43697454285 -3.5465976353 0.047476726565 -0.9870256392 -1.1254823138
          0.5598531765 -0.4878878674 0.83818851979 0 0 -3.44160965
          0 0 -3.44160965 0 0 -3.44160965
          0 0 -3.44160965 0 0 -3.44160965
          0 0 -3.44160965 0.092814899068 -0.062871626915 -3.3388490825
          -0.26377497152 0.036029916717 -2.9933170386 0 0 -3.44160965
          0 0 -3.44160965 -0.011643600438 0.16478245757 -3.5134928232
          0 0 -3.44160965 0 0 -3.44160965
          0 0 -3.44160965 0 0 -3.44160965
          0.54323971454 -0.21997840257 -3.0836353659 0 0 -3.44160965
          -0.74022160161 -0.84176726337 -1.6487082353 -0.070996936255 0.050897583458 -2.8033835301
          -0.065947436172 0.050156494341 -3.3101456301 0 0 -3.44160965
          -0.53848985911 -0.49708978649 -1.9253318983 0 0 -3.44160965
          0.35222866119 0.03538397707 -3.6851996532 0 0 -3.44160965
          0 0 -3.44160965 0 0 -3.44160965
          -0.34361153405 -0.17917864232 -3.4810718361 0.12484012996 -0.18436232962 -3.4539025829
          0 0 -3.44160965 0 0 -3.44160965
          0.16426296139 0.59920922376 -3.3989853671 0 0 -3.44160965
          0 0 -3.44160965 0 0 -3.44160965
          0 0 -3.44160965 0 0 -3.44160965
          0.12003678756 -0.20998367703 -3.1049149618 0 0 -3.44160965
          0 0 -3.44160965 0 0 -3.44160965
          0 0 -3.44160965 -0.042890243737 -0.036775519587 -3.441738375
          0 0 -3.44160965 0.014467391089 0.0084896134467 -3.3810910767
          -0.19823226892 -0.1971841741 -3.252898718 0 0 -3.44160965
          0 0 -3.44160965 0 0 -3.44160965
          0 0 -3.44160965 0 0 -3.44160965
          0 0 -3.44160965 0 0 -3.44160965
          0 0 -3.44160965 0 0 -3.44160965
          0 0 -3.44160965 0 0 -3.44160965
          0 0 -3.44160965 0 0 -3.44160965
          0 0 -3.44160965 0 0 -3.44160965
          0 0 -3.44160965 0 0 -3.44160965
          0 0 -3.44160965 0 0 -3.44160965
          0 0 -3.44160965 0.0054451676938 0.016046505715 -3.1021548097
          -0.0041730874737 0.012482634129 -3.3503396847 0.11910235609 0.17949025372 -3.4315949806
          0 0 -3.44160965 -0.11267844848 -0.034182749356 -3.345390104
          0 0 -3.44160965 0 0 -3.44160965
          0.19637000036 0.46490949173 -2.8270843163 0 0 -3.44160965
          0 0 -3.44160965
        </DataArray>
        <DataArray type="Float64" Name="f" NumberOfComponents="3" format="ascii" RangeMin="0" RangeMax="4137.9593077">
          -2.1205649141 -1.1092831804 24.13489876 96.277799623 180.38510619 -103.63110897
          0 0 0 66.835893475 32.328817511 8.4620755418
          -121.48253269 31.375233592 260.74659268 -3.4628402615 1.0733171217 23.233194628
          1.3144047936 1.180686268 24.017677751 0 0 0
          2.0197468604 5.4147533067 11.638485952 7.5413834966 -13.11504402 30.3344909
          0 0 0 -36.346196348 12.059583346 69.476344549
          154.50911942 -160.08164669 245.32752224 -164.43566018 297.18878249 -161.56662388
          -1.0061857718 32.2768955 79.085485311 0 0 0
          0 0 0 0 0 0
          39.20572924 -4.6611312725 78.687628207 133.87959715 278.24681717 465.79234921
          443.80487456 566.713251 985.10153899 0 0 0
          -500.07682775 787.690122 -155.26515174 -563.42983162 -146.57283571 -1057.1042558
          -20.619871216 -0.039716418125 41.239818931 -115.65030398 -111.27598439 410.05897598
          265.50274042 -188.65400066 86.094020015 0 0 0
          11.629168854 -17.97791076 192.54670342 -4.6161608281 -17.495768243 36.18899541
          -16.223100993 -19.296635017 50.420199476 -20.255122647 -3.5037563881 44.215947179
          -8.9948219961 -29.419605509 61.520109609 7.8570274984 -12.25464358 29.114200686
          -15.475712612 3.1995102074 31.669322844 -1.991370403 -11.465956121 23.268537945
          -87.010352971 -47.154565192 197.50585392 -0.47017854573 0.78498826208 20.91889463
          0 0 0 3.4900257929 -149.43157844 298.94465652
          71.44242848 -147.73601402 237.57574624 -2.8260183325 2.1794396741 27.496160709
          0.34341427784 -0.024445178876 25.854606228 0 0 0
          0 0 0 8.6542887997 -25.413981592 -20.489051542
          0 0 0 0 0 0
          0 0 0 -2.9319017443 -6.2742219836 80.082276976
          25.860677346 12.678380085 58.684326763 0 0 0
          185.29941966 -325.91342118 233.32821522 0 0 0
          -1.0972518384 -0.41119343017 0.026466109663 0 0 0
          0 0 0 -209.25185469 190.46098697 267.07163392
          -6.2263200806 -49.209234556 52.176840882 -2.7773208169 0.40944353963 -0.20727688799
          -36.983689362 -60.509501329 -6.0514022671 92.650468226 -29.19068931 106.93897846
          -67.916617479 143.56183524 317.90462345 0 0 0
          1614.5862583 1031.4473647 1094.3806359 -798.99653196 -152.9319563 359.91661229
          -35.351176892 6.4652639059 191.31343554 0 0 0
          623.656117 546.77044941 38.44420274 0 0 0
          134.73739274 -0.77994444563 -47.564080801 0 0 0
          0 0 0 0 0 0
          -6.1833809016 -44.598151341 1.2214784424 0 0 0
          6.483769114 -122.87769706 62.526457277 0 0 0
          0 0 0 0 0 0
          -197.61688261 -10.958507429 190.12524113 -6.483769114 122.87769706 -62.526457277
          6.8923529024 14.678129539 32.463467898 -95.112725012 15.302039518 98.780387878
          31.022228536 -12.812397536 -66.199197648 0.21942560114 0.1084359601 1.5207618071
          479.27425019 -292.0192995 -1573.2340433 -213.04196979 9.0065174672 811.11625736
          71.531449571 277.92339012 -559.97531273 -9.0002950615 26.101702543 16.117306214
          -181.02369963 -1186.0447141 250.17860662 -765.2817559 45.894607007 118.07501583
          2.7773208169 -0.40944353963 0.20727688799 -23.565516382 68.037755224 77.810148466
          0 0 0 0 0 0
          817.99892877 353.34669612 192.41350144 0 0 0
          0 0 0 -805.00968215 14.769274021 -285.52459702
          64.698983567 -6.5581067008 -31.677765943 0 0 0
          -1172.4337089 83.84727888 -396.79108436 0 0 0
          0 0 0 0 0 0
          0 0 0 6.1833809016 44.598151341 -1.2214784424
          0 0 0 0 0 0
          0 0 0 0 0 0
          0 0 0 709.69109279 -526.80167903 -1740.490432
          0 0 0 0 0 0
          0 0 0 0 0 0
          -479.27425019 292.0192995 1573.2340433 0 0 0
          -0.49139084086 -288.88531215 238.62768356 0.3460062618 -0.68772095095 4.3717453288
          0 0 0 0 0 0
          0 0 0 0 0 0
          0 0 0 0 0 0
          -92.650468226 29.19068931 -106.93897846 0 0 0
          0 0 0 0 0 0
          -601.52517514 -133.34029791 2683.4439729 1159.2512458 -101.72046998 264.07111307
          0 0 0 0 0 0
          0 0 0 0 0 0
          0 0 0 0 0 0
          0 0 0 0 0 0
          0 0 0 0 0 0
          0 0 0 0 0 0
          0 0 0 0 0 0
          0 0 0 0 0 0
          0 0 0 0 0 0
          0 0 0 0 0 0
          -595.94936442 864.85581955 -4002.4462518 0 0 0
          0 0 0 0 0 0
          0 0 0 0 0 0
          0 0 0 0 0 0
          -709.69109279 526.80167903 1740.490432 0 0 0
          0 0 0 0 0 0
          0 0 0 0 0 0
          0 0 0 0 0 0
          0 0 0 0 0 0
          -71.04005873 10.961922026 321.34762917 0 0 0
          0 0 0 0 0 0
          0 0 0 0 0 0
          0 0 0 0 0 0
          0 0 0 0 0 0
          0 0 0 0 0 0
          0 0 0 0 0 0
          0 0 0 0 0 0
          0 0 0 0 0 0
          0 0 0 0 0 0
          595.94936442 -864.85581955 4002.4462518 0 0 0
          0 0 0 0 0 0
          0 0 0 0 0 0
          0 0 0 0 0 0
          0 0 0 0 0 0
          0 0 0 0 0 0
          0 0 0 0 0 0
          0 0 0 0 0 0
          0 0 0 0 0 0
          0 0 0 0 0 0
          0 0 0 0 0 0
          0 0 0 0 0 0
          0 0 0 0 0 0
          0 0 0 0 0 0
          0 0 0 0 0 0
          0 0 0 81.156334803 137.17118728 33.903145056
          0 0 0 0 0 0
          0 0 0 0 0 0
          -81.156334803 -137.17118728 -33.903145056 0 0 0
          0 0 0
        </DataArray>
        <DataArray type="Float64" Name="radius" format="ascii" RangeMin="0.086602540378" RangeMax="0.086602540378">
          0.086602540378 0.086602540378 0.086602540378 0.086602540378 0.086602540378 0.086602540378
          0.086602540378 0.086602540378 0.086602540378 0.086602540378 0.086602540378 0.086602540378
          0.086602540378 0.086602540378 0.086602540378 0.086602540378 0.086602540378 0.086602540378
          0.086602540378 0.086602540378 0.086602540378 0.086602540378 0.086602540378 0.086602540378
          0.086602540378 0.086602540378 0.086602540378 0.086602540378 0.086602540378 0.086602540378
          0.086602540378 0.086602540378 0.086602540378 0.086602540378 0.086602540378 0.086602540378
          0.086602540378 0.086602540378 0.086602540378 0.086602540378 0.086602540378 0.086602540378
          0.086602540378 0.086602540378 0.086602540378 0.086602540378 0.086602540378 0.086602540378
          0.086602540378 0.086602540378 0.086602540378 0.086602540378 0.086602540378 0.086602540378
          0.086602540378 0.086602540378 0.086602540378 0.086602540378 0.086602540378 0.086602540378
          0.086602540378 0.086602540378 0.086602540378 0.086602540378 0.086602540378 0.086602540378
          0.086602540378 0.086602540378 0.086602540378 0.086602540378 0.086602540378 0.086602540378
          0.086602540378 0.086602540378 0.086602540378 0.086602540378 0.086602540378 0.086602540378
          0.086602540378 0.086602540378 0.086602540378 0.086602540378 0.086602540378 0.086602540378
          0.086602540378 0.086602540378 0.086602540378 0.086602540378 0.086602540378 0.086602540378
          0.086602540378 0.086602540378 0.086602540378 0.086602540378 0.086602540378 0.086602540378
          0.086602540378 0.086602540378 0.086602540378 0.086602540378 0.086602540378 0.086602540378
          0.086602540378 0.086602540378 0.086602540378 0.086602540378 0.086602540378 0.086602540378
          0.086602540378 0.086602540378 0.086602540378 0.086602540378 0.086602540378 0.086602540378
          0.086602540378 0.086602540378 0.086602540378 0.086602540378 0.086602540378 0.086602540378
          0.086602540378 0.086602540378 0.086602540378 0.086602540378 0.086602540378 0.086602540378
          0.086602540378 0.086602540378 0.086602540378 0.086602540378 0.086602540378 0.086602540378
          0.086602540378 0.086602540378 0.086602540378 0.086602540378 0.086602540378 0.086602540378
          0.086602540378 0.086602540378 0.086602540378 0.086602540378 0.086602540378 0.086602540378
          0.086602540378 0.086602540378 0.086602540378 0.086602540378 0.086602540378 0.086602540378
          0.086602540378 0.086602540378 0.086602540378 0.086602540378 0.086602540378 0.086602540378
          0.086602540378 0.086602540378 0.086602540378 0.086602540378 0.086602540378 0.086602540378
          0.086602540378 0.086602540378 0.086602540378 0.086602540378 0.086602540378 0.086602540378
          0.086602540378 0.086602540378 0.086602540378 0.086602540378 0.086602540378 0.086602540378
          0.086602540378 0.086602540378 0.086602540378 0.086602540378 0.086602540378 0.086602540378
          0.086602540378 0.086602540378 0.086602540378 0.086602540378 0.086602540378 0.086602540378
          0.086602540378 0.086602540378 0.086602540378 0.086602540378 0.086602540378 0.086602540378
          0.086602540378 0.086602540378 0.086602540378 0.086602540378 0.086602540378 0.086602540378
          0.086602540378 0.086602540378 0.086602540378 0.086602540378 0.086602540378 0.086602540378
          0.086602540378 0.086602540378 0.086602540378 0.086602540378 0.086602540378 0.086602540378
          0.086602540378 0.086602540378 0.086602540378 0.086602540378 0.086602540378 0.086602540378
          0.086602540378 0.086602540378 0.086602540378 0.086602540378 0.086602540378 0.086602540378
          0.086602540378 0.086602540378 0.086602540378 0.086602540378 0.086602540378 0.086602540378
          0.086602540378 0.086602540378 0.086602540378
        </DataArray>
        <DataArray type="Float64" Name="omega" NumberOfComponents="3" format="ascii" RangeMin="0" RangeMax="20.80322732">
          0.0022761836453 0.02212193182 -0.031246164914 1.0211383303 4.0504023757 3.6771146582
          -0.44118581824 2.8129917439 -1.0395261952 0.010024230844 -0.34960233447 0.74686823699
          0.010024230844 -0.34960233447 0.74686823699 0.0022761836453 0.02212193182 -0.031246164914
          0.0022761836453 0.02212193182 -0.031246164914 1.0211383303 4.0504023757 3.6771146582
          -0.44118581824 2.8129917439 -1.0395261952 0.73677476014 -0.34493246861 2.8868795067
          -0.41166612982 0.19396831861 -0.30359667508 -0.41166612982 0.19396831861 -0.30359667508
          0.73677476014 -0.34493246861 2.8868795067 0.73677476014 -0.34493246861 2.8868795067
          -0.30733968395 0.3180694466 5.6548576076 3.5213382912 3.792773107 3.2942304207
          -3.049479987 3.8794268061 1.5136302213 -3.049479987 3.8794268061 1.5136302213
          -1.3108856944 1.8921868784 1.7423710667 -1.1955237086 1.1746071343 0.04017254863
          -1.1955237086 1.1746071343 0.04017254863 -3.049479987 3.8794268061 1.5136302213
          -1.3108856944 1.8921868784 1.7423710667 -1.1955237086 1.1746071343 0.04017254863
          0.4988581512 -2.9654090254 -1.6921880122 0.80152669668 1.7334193331 0.50241725907
          -1.3108856944 1.8921868784 1.7423710667 0.4988581512 -2.9654090254 -1.6921880122
          0.80152669668 1.7334193331 0.50241725907 0.11214480141 0.9350410804 0.31917637365
          -1.1183515352 0.30089473273 2.2881954998 -0.73248495153 -3.2888873485 0.12547950387
          -1.5921408455 0.64805992811 1.5950556576 0.11214480141 0.9350410804 0.31917637365
          0.60266523633 -0.84144122586 0.47917255296 -1.5921408455 0.64805992811 1.5950556576
          -0.19636172791 -1.5374124997 -0.47636198609 0.0057133375717 0.0083985918398 -0.0014635927298
          -1.5921408455 0.64805992811 1.5950556576 0.11582396709 3.7847267928 5.0572993416
          -0.19636172791 -1.5374124997 -0.47636198609 0.0057133375717 0.0083985918398 -0.0014635927298
          0.0057133375717 0.0083985918398 -0.0014635927298 6.1846312796 1.0717970589 -2.1018515723
          -0.44118581824 2.8129917439 -1.0395261952 0.010024230844 -0.34960233447 0.74686823699
          6.1846312796 1.0717970589 -2.1018515723 1.2411697808 -3.0108352689 -3.2759217688
          1.0211383303 4.0504023757 3.6771146582 1.7461789319 -15.005800814 -2.9859020815
          1.7461789319 -15.005800814 -2.9859020815 1.2411697808 -3.0108352689 -3.2759217688
          8.1952652579 4.3270732964 2.0578925722 -0.41166612982 0.19396831861 -0.30359667508
          -0.30733968395 0.3180694466 5.6548576076 3.5213382912 3.792773107 3.2942304207
          -0.30733968395 0.3180694466 5.6548576076 -2.7749561868 -1.0631157495 2.7533965362
          3.5213382912 3.792773107 3.2942304207 -2.993544256 -5.2425942803 -0.97413172477
          -2.993544256 -5.2425942803 -0.97413172477 1.0453493261 11.293194692 0.14769094664
          -4.9491127674 3.024627386 1.0874151877 -10.945232134 0.96728529856 -0.48586046724
          -10.945232134 0.96728529856 -0.48586046724 -10.945232134 0.96728529856 -0.48586046724
          2.0604663122 -2.1658565277 0.31262777757 1.0453493261 11.293194692 0.14769094664
          0.4988581512 -2.9654090254 -1.6921880122 2.0604663122 -2.1658565277 0.31262777757
          -2.6730417859 1.288265998 2.9021158684 0.80152669668 1.7334193331 0.50241725907
          -1.6510106969 -0.45495283014 -0.062124185531 -1.1183515352 0.30089473273 2.2881954998
          -0.73248495153 -3.2888873485 0.12547950387 0.11214480141 0.9350410804 0.31917637365
          -1.1183515352 0.30089473273 2.2881954998 0.60266523633 -0.84144122586 0.47917255296
          -0.73248495153 -3.2888873485 0.12547950387 1.4334954589 1.2114200573 2.096927963
          0.11582396709 3.7847267928 5.0572993416 -0.19636172791 -1.5374124997 -0.47636198609
          0.60266523633 -0.84144122586 0.47917255296 0.11582396709 3.7847267928 5.0572993416
          6.1846312796 1.0717970589 -2.1018515723 -4.2237117196 -8.014423442 -1.569004015
          -4.2237117196 -8.014423442 -1.569004015 -4.2237117196 -8.014423442 -1.569004015
          8.1952652579 4.3270732964 2.0578925722 1.7461789319 -15.005800814 -2.9859020815
          1.2411697808 -3.0108352689 -3.2759217688 8.1952652579 4.3270732964 2.0578925722
          20.607116942 2.1419577481 1.8796316898 -2.993544256 -5.2425942803 -0.97413172477
          20.607116942 2.1419577481 1.8796316898 -2.7749561868 -1.0631157495 2.7533965362
          -2.7749561868 -1.0631157495 2.7533965362 1.0453493261 11.293194692 0.14769094664
          -4.9491127674 3.024627386 1.0874151877 2.0604663122 -2.1658565277 0.31262777757
          -2.6730417859 1.288265998 2.9021158684 -2.6730417859 1.288265998 2.9021158684
          -4.9491127674 3.024627386 1.0874151877 3.0753646254 -2.8494065763 -5.9600701938
          3.0753646254 -2.8494065763 -5.9600701938 -1.6510106969 -0.45495283014 -0.062124185531
          -1.6510106969 -0.45495283014 -0.062124185531 1.4334954589 1.2114200573 2.096927963
          -19.655207221 3.0160603584 1.6892833908 -19.655207221 3.0160603584 1.6892833908
          1.4334954589 1.2114200573 2.096927963 -19.655207221 3.0160603584 1.6892833908
          20.607116942 2.1419577481 1.8796316898 3.0753646254 -2.8494065763 -5.9600701938
          3.7062828662 -3.5025573922 3.9391661031 6.5982163855 -11.232998893 -6.7319155601
          3.7062828662 -3.5025573922 3.9391661031 3.7062828662 -3.5025573922 3.9391661031
          4.944471728 -2.4729144307 3.3298224365 6.5982163855 -11.232998893 -6.7319155601
          6.5982163855 -11.232998893 -6.7319155601 0.035410695543 11.338474939 -0.84612659673
          0.035410695543 11.338474939 -0.84612659673 0 0 0
          0 0 0 -20.070616835 -0.95694875348 2.2146649869
          -20.070616835 -0.95694875348 2.2146649869 0 0 0
          4.4143013471 2.6694868301 -0.74267292762 4.4143013471 2.6694868301 -0.74267292762
          0 0 0 7.7895367064 1.7998295938 -0.18682319289
          15.755927605 -2.8573512526 2.0037640943 15.755927605 -2.8573512526 2.0037640943
          7.7895367064 1.7998295938 -0.18682319289 0 0 0
          0 0 0 4.944471728 -2.4729144307 3.3298224365
          4.944471728 -2.4729144307 3.3298224365 -0.87377236263 1.7638373765 0.17122606629
          -0.87377236263 1.7638373765 0.17122606629 0.035410695543 11.338474939 -0.84612659673
          5.7356090289 7.6884583072 1.4425362429 1.2307395697 -2.7439692607 1.9777210174
          1.2307395697 -2.7439692607 1.9777210174 1.2307395697 -2.7439692607 1.9777210174
          0 0 0 -6.0488584617 15.560150243 8.8823316649
          -20.070616835 -0.95694875348 2.2146649869 0 0 0