<?xml version="1.0"?>
<VTKFile type="UnstructuredGrid" version="1.0" byte_order="LittleEndian" header_type="UInt64">
  <UnstructuredGrid>
    <Piece NumberOfPoints="16" NumberOfCells="2">
      <PointData>
      </PointData>
      <CellData>
        <DataArray type="Int32" Name="nlocal" format="ascii" RangeMin="3" RangeMax="231">
          231 3
        </DataArray>
        <DataArray type="Int32" Name="proc" format="ascii" RangeMin="0" RangeMax="1">
          0 1
        </DataArray>
      </CellData>
      <Points>
        <DataArray type="Float32" Name="Points" NumberOfComponents="3" format="ascii" RangeMin="0.9899494768" RangeMax="1.2124355447">
          -0.69999998808 -0.69999998808 -0.69999998808 -0.69999998808 -0.69999998808 0
          -0.69999998808 0.69999998808 -0.69999998808 -0.69999998808 0.69999998808 0
          0.69999998808 -0.69999998808 -0.69999998808 0.69999998808 -0.69999998808 0
          0.69999998808 0.69999998808 -0.69999998808 0.69999998808 0.69999998808 0
          -0.69999998808 -0.69999998808 0 -0.69999998808 -0.69999998808 0.69999998808
          -0.69999998808 0.69999998808 0 -0.69999998808 0.69999998808 0.69999998808
          0.69999998808 -0.69999998808 0 0.69999998808 -0.69999998808 0.69999998808
          0.69999998808 0.69999998808 0 0.69999998808 0.69999998808 0.69999998808
        </DataArray>
      </Points>
      <Cells>
        <DataArray type="Int64" Name="connectivity" format="ascii" RangeMin="0" RangeMax="15">
          0 1 2 3 4 5
          6 7 8 9 10 11
          12 13 14 15
        </DataArray>
        <DataArray type="Int64" Name="offsets" format="ascii" RangeMin="8" RangeMax="16">
          8 16
        </DataArray>
        <DataArray type="UInt8" Name="types" format="ascii" RangeMin="11" RangeMax="11">
          11 11
        </DataArray>
      </Cells>
    </Piece>
  </UnstructuredGrid>
</VTKFile>
