<?xml version="1.0"?>
<VTKFile type="PolyData" version="1.0" byte_order="LittleEndian" header_type="UInt64">
  <PolyData>
    <Piece NumberOfPoints="3" NumberOfVerts="3" NumberOfLines="0" NumberOfStrips="0" NumberOfPolys="0">
      <PointData>
        <DataArray type="Int32" Name="id" format="ascii" RangeMin="169" RangeMax="221">
          169 171 221
        </DataArray>
        <DataArray type="Int32" Name="type" format="ascii" RangeMin="1" RangeMax="1">
          1 1 1
        </DataArray>
        <DataArray type="Float64" Name="mass" format="ascii" RangeMin="7.5" RangeMax="7.5">
          7.5 7.5 7.5
        </DataArray>
        <DataArray type="Float64" Name="v" NumberOfComponents="3" format="ascii" RangeMin="2.9845502618" RangeMax="3.2720275782">
          0.16537982368 0.41842500186 -2.95044239 0.19276756595 0.2709413358 -3.0090115721
          -0.43635168923 0.1158503497 -3.2407314564
        </DataArray>
        <DataArray type="Float64" Name="f" NumberOfComponents="3" format="ascii" RangeMin="0" RangeMax="0">
          0 0 0 0 0 0
          0 0 0
        </DataArray>
        <DataArray type="Float64" Name="radius" format="ascii" RangeMin="0.086602540378" RangeMax="0.086602540378">
          0.086602540378 0.086602540378 0.086602540378
        </DataArray>
        <DataArray type="Float64" Name="omega" NumberOfComponents="3" format="ascii" RangeMin="1.8947562469" RangeMax="3.7408393767">
          1.6910924956 0.56770414597 -0.63876396971 1.6910924956 0.56770414597 -0.63876396971
          -1.5328422019 -1.0396754429 -3.2501306128
        </DataArray>
        <DataArray type="Float64" Name="tq" NumberOfComponents="3" format="ascii" RangeMin="0" RangeMax="0">
          0 0 0 0 0 0
          0 0 0
        </DataArray>
        <DataArray type="Float64" Name="density" format="ascii" RangeMin="2500" RangeMax="2500">
          2500 2500 2500
        </DataArray>
        <DataArray type="Int32" Name="shapetype" format="ascii" RangeMin="0" RangeMax="2">
          0 2 1
        </DataArray>
        <DataArray type="Float64" Name="TENSOR" NumberOfComponents="9" format="ascii" RangeMin="1.7320508076" RangeMax="1.7320508076">
          0.44583817152 -0.52903305339 -0.72204733448 0.34647146076 0.84576924396 -0.4057485833
          0.82533984012 -0.069270588238 0.56037106805 0.44583817152 -0.52903305339 -0.72204733448
          0.34647146076 0.84576924396 -0.4057485833 0.82533984012 -0.069270588238 0.56037106805
          0.96856393829 -0.13663887372 0.20787908898 -0.22539149864 -0.83565058439 0.50088598818
          0.1052737849 -0.53199428474 -0.84017826157
        </DataArray>
        <DataArray type="Float64" Name="f_cornerghost" format="ascii" RangeMin="0" RangeMax="0">
          0 0 0
        </DataArray>
        <DataArray type="Float64" Name="f_delflag" format="ascii" RangeMin="0" RangeMax="0">
          0 0 0
        </DataArray>
        <DataArray type="Float64" Name="f_existflag" format="ascii" RangeMin="1" RangeMax="1">
          1 1 1
        </DataArray>
        <DataArray type="Float64" Name="f_volumeweight_ms" format="ascii" RangeMin="1" RangeMax="1">
          1 1 1
        </DataArray>
      </PointData>
      <CellData>
      </CellData>
      <Points>
        <DataArray type="Float32" Name="Points" NumberOfComponents="3" format="ascii" RangeMin="0.21962207" RangeMax="0.62129792076">
          0.21549059451 -0.035916615278 0.022531179711 0.29802456498 -0.042843673378 0.078568287194
          -0.4389578402 -0.4394505024 0.014504372142
        </DataArray>
      </Points>
      <Verts>
        <DataArray type="Int64" Name="connectivity" format="ascii" RangeMin="0" RangeMax="2">
          0 1 2
        </DataArray>
        <DataArray type="Int64" Name="offsets" format="ascii" RangeMin="1" RangeMax="3">
          1 2 3
        </DataArray>
      </Verts>
      <Lines>
        <DataArray type="Int64" Name="connectivity" format="ascii" RangeMin="0" RangeMax="2">
        </DataArray>
        <DataArray type="Int64" Name="offsets" format="ascii" RangeMin="1" RangeMax="3">
        </DataArray>
      </Lines>
      <Strips>
        <DataArray type="Int64" Name="connectivity" format="ascii" RangeMin="0" RangeMax="2">
        </DataArray>
        <DataArray type="Int64" Name="offsets" format="ascii" RangeMin="1" RangeMax="3">
        </DataArray>
      </Strips>
      <Polys>
        <DataArray type="Int64" Name="connectivity" format="ascii" RangeMin="0" RangeMax="2">
        </DataArray>
        <DataArray type="Int64" Name="offsets" format="ascii" RangeMin="1" RangeMax="3">
        </DataArray>
      </Polys>
    </Piece>
  </PolyData>
</VTKFile>
