BEGIN_CFG
 Size
  4
 Supercell
  2.86 0.00 0.00
  0.00 5.71 0.00
  0.00 0.00 4.05
 AtomData: id type cartes_x cartes_y cartes_z fx fy fz
  1 0 0.00 -0.13 0.00 0.00 0.75 0.00
  2 0 1.43 1.45 2.06 0.00 -0.13 0.00
  3 1 0.00 2.87 0.00 0.00 -0.41 0.00
  4 1 1.43 4.26 2.06 0.00 -0.20 0.00
 Energy
  -16.023765555539
 PlusStress: xx yy zz yz xz xy
  -0.29 0.23 -0.09 0.00 0.00 0.00
 Feature EFS_by vasp
 Feature from database:p.cfg
 Feature mindist 2.70
END_CFG

BEGIN_CFG
 Size
  1
 Supercell
  2 0 0
  1 1.7 0
 AtomData: cartes_x cartes_y cartes_z
  0 0 0
END_CFG