ITEM: TIMESTEP
2000
ITEM: NUMBER OF ATOMS
45
ITEM: BOX BOUNDS pp pp pp
5.3934420299224513e+01 8.7486935938085082e+01
5.3934420299224513e+01 8.7486935938085082e+01
-3.5355339059327378e+00 3.5355339059327378e+00
ITEM: ATOMS id type x y z shapex shapey shapez quatw quati quatj quatk
24 2 60.5042 55.7456 0 3 1 1 0.670233 0 0 0.742151
50 2 66.541 56.323 0 3 1 1 -0.820817 0 0 0.571191
54 2 75.085 56.0964 0 3 1 1 -0.438721 0 0 0.898623
79 2 84.2515 55.6168 0 3 1 1 -0.143189 0 0 0.989695
20 2 86.9482 54.8209 0 3 1 1 -0.947136 0 0 0.320833
2 2 56.5706 56.5538 0 3 1 1 0.0167907 0 0 0.999859
67 2 63.8436 58.3977 0 3 1 1 -0.891916 0 0 0.452201
91 2 72.5496 58.8364 0 3 1 1 -0.0802974 0 0 0.996771
74 2 77.0961 57.723 0 3 1 1 0.0321277 0 0 0.999484
49 2 65.4819 59.1306 0 3 1 1 -0.875139 0 0 0.483872
118 2 80.5904 59.3853 0 3 1 1 -0.325164 0 0 0.945658
117 2 81.99 63.0811 0 3 1 1 -0.34538 0 0 0.938463
119 2 84.9217 63.0961 0 3 1 1 -0.535886 0 0 0.84429
126 2 60.7914 65.0453 0 3 1 1 0.616057 0 0 0.787702
88 2 67.2907 64.4246 0 3 1 1 0.806444 0 0 0.59131
132 2 72.9869 66.3261 0 3 1 1 -0.999985 0 0 0.00550181
157 2 77.6546 66.5693 0 3 1 1 -0.944902 0 0 -0.327352
159 2 85.4382 65.7758 0 3 1 1 0.464785 0 0 0.885424
161 2 55.7701 68.435 0 3 1 1 -0.831389 0 0 0.55569
187 2 64.4022 68.318 0 3 1 1 -0.959705 0 0 0.281011
139 2 81.9207 67.3672 0 3 1 1 0.498044 0 0 0.867151
221 2 54.2357 71.1788 0 3 1 1 0.539565 0 0 0.841944
208 2 64.3951 70.521 0 3 1 1 -0.928794 0 0 -0.370596
210 2 68.2491 71.129 0 3 1 1 -0.361789 0 0 0.93226
214 2 74.1363 71.4701 0 3 1 1 -0.167538 0 0 0.985866
220 2 87.0704 69.9683 0 3 1 1 0.893793 0 0 -0.44848
256 2 79.7727 72.9045 0 3 1 1 0.719862 0 0 0.694118
284 2 59.6345 75.8417 0 3 1 1 -0.978848 0 0 0.204591
295 2 76.1091 76.6872 0 3 1 1 0.988186 0 0 0.153261
326 2 63.0189 79.6883 0 3 1 1 -0.22697 0 0 0.973902
309 2 66.9522 78.0044 0 3 1 1 -0.0763763 0 0 0.997079
329 2 70.7707 78.5589 0 3 1 1 0.982837 0 0 0.184474
296 2 75.8263 77.853 0 3 1 1 -0.999826 0 0 0.0186296
339 2 83.108 78.5258 0 3 1 1 -0.955572 0 0 0.294758
301 2 86.7329 79.2081 0 3 1 1 0.919432 0 0 0.39325
342 2 56.272 82.9159 0 3 1 1 -0.591386 0 0 0.806389
365 2 60.4796 84.2926 0 3 1 1 -0.153716 0 0 0.988115
376 2 78.5304 84.4708 0 3 1 1 0.650722 0 0 0.759316
398 2 81.2903 84.2526 0 3 1 1 -0.631087 0 0 0.775712
359 2 85.6895 84.4176 0 3 1 1 -0.657653 0 0 0.753321
6 2 62.8365 85.5312 0 3 1 1 0.89943 0 0 -0.437064
9 2 66.7813 86.0142 0 3 1 1 0.978741 0 0 0.2051
369 2 66.5482 84.9158 0 3 1 1 0.994209 0 0 0.107463
395 2 77.3826 86.768 0 3 1 1 0.767718 0 0 0.640788
36 2 81.6601 87.22 0 3 1 1 -0.776263 0 0 0.630409
ITEM: TIMESTEP
2100
ITEM: NUMBER OF ATOMS
45
ITEM: BOX BOUNDS pp pp pp
5.3934420299224513e+01 8.7486935938085082e+01
5.3934420299224513e+01 8.7486935938085082e+01
-3.5355339059327378e+00 3.5355339059327378e+00
ITEM: ATOMS id type x y z shapex shapey shapez quatw quati quatj quatk
24 2 60.2458 55.5233 0 3 1 1 0.608469 0 0 0.793577
50 2 66.4586 56.359 0 3 1 1 -0.957203 0 0 0.289416
54 2 75.0678 55.9461 0 3 1 1 -0.420804 0 0 0.907152
79 2 84.5329 55.6449 0 3 1 1 -0.159718 0 0 0.987163
20 2 87.1427 54.7608 0 3 1 1 -0.930526 0 0 0.366226
2 2 56.8843 56.5441 0 3 1 1 -0.0022587 0 0 0.999997
67 2 64.1612 58.3001 0 3 1 1 -0.946179 0 0 0.323644
91 2 72.7119 58.7207 0 3 1 1 -0.177731 0 0 0.984079
74 2 77.2512 57.4237 0 3 1 1 0.119863 0 0 0.99279
49 2 65.1946 59.2213 0 3 1 1 -0.76582 0 0 0.643055
118 2 80.4189 59.0044 0 3 1 1 -0.275378 0 0 0.961336
117 2 82.1049 63.1427 0 3 1 1 -0.549865 0 0 0.835254
119 2 84.9255 63.3829 0 3 1 1 -0.406202 0 0 0.913783
126 2 60.6692 64.9841 0 3 1 1 0.573219 0 0 0.819402
88 2 67.2545 64.7267 0 3 1 1 0.903086 0 0 0.42946
132 2 73.0997 66.352 0 3 1 1 -0.994603 0 0 0.103756
157 2 77.4237 66.9472 0 3 1 1 -0.951247 0 0 -0.30843
159 2 85.4101 65.8584 0 3 1 1 0.369896 0 0 0.929073
161 2 55.8102 68.3245 0 3 1 1 -0.846923 0 0 0.531715
187 2 63.9256 68.1138 0 3 1 1 -0.995987 0 0 0.0894985
139 2 81.9526 67.0733 0 3 1 1 0.423893 0 0 0.905712
221 2 54.0875 70.6484 0 3 1 1 0.522003 0 0 0.852944
208 2 64.4387 70.5516 0 3 1 1 -0.866061 0 0 -0.499938
210 2 68.4864 70.8152 0 3 1 1 -0.476701 0 0 0.879065
214 2 73.8583 71.4085 0 3 1 1 -0.359106 0 0 0.933297
220 2 86.9762 69.7604 0 3 1 1 0.845575 0 0 -0.533857
256 2 79.7074 72.9447 0 3 1 1 0.620849 0 0 0.78393
284 2 59.9693 75.6663 0 3 1 1 -0.981065 0 0 0.193677
295 2 75.9048 76.3962 0 3 1 1 0.979357 0 0 0.202138
326 2 63.0265 79.589 0 3 1 1 -0.189206 0 0 0.981937
309 2 67.238 77.9356 0 3 1 1 -0.114885 0 0 0.993379
329 2 70.5713 78.5783 0 3 1 1 0.993743 0 0 0.111687
296 2 75.9889 77.9749 0 3 1 1 -0.997124 0 0 -0.0757816
339 2 83.2308 78.5832 0 3 1 1 -0.950639 0 0 0.310299
301 2 86.7031 79.1057 0 3 1 1 0.941564 0 0 0.336835
342 2 55.9727 82.864 0 3 1 1 -0.714599 0 0 0.699534
365 2 60.5486 84.4469 0 3 1 1 -0.12086 0 0 0.99267
376 2 78.5813 84.2808 0 3 1 1 0.569433 0 0 0.822038
398 2 81.1136 83.7896 0 3 1 1 -0.618761 0 0 0.785579
359 2 85.861 84.6392 0 3 1 1 -0.740508 0 0 0.672047
6 2 62.8823 85.427 0 3 1 1 0.850003 0 0 -0.526778
9 2 66.791 86.3313 0 3 1 1 0.949203 0 0 0.314664
369 2 66.7429 84.8703 0 3 1 1 0.976197 0 0 0.216884
395 2 77.397 87.0419 0 3 1 1 0.780486 0 0 0.625173
36 2 81.835 87.1443 0 3 1 1 -0.746482 0 0 0.665406
ITEM: TIMESTEP
2200
ITEM: NUMBER OF ATOMS
45
ITEM: BOX BOUNDS pp pp pp
5.3934420299224513e+01 8.7486935938085082e+01
5.3934420299224513e+01 8.7486935938085082e+01
-3.5355339059327378e+00 3.5355339059327378e+00
ITEM: ATOMS id type x y z shapex shapey shapez quatw quati quatj quatk
24 2 60.0446 55.3931 0 3 1 1 0.619673 0 0 0.78486
50 2 66.5898 56.4902 0 3 1 1 -0.959679 0 0 0.281099
54 2 74.8799 55.9445 0 3 1 1 -0.428549 0 0 0.903519
79 2 84.6884 55.7051 0 3 1 1 -0.146307 0 0 0.989239
20 2 87.3909 54.7214 0 3 1 1 -0.807393 0 0 0.590014
2 2 57.2071 56.4666 0 3 1 1 -0.0779765 0 0 0.996955
67 2 64.1964 58.2974 0 3 1 1 -0.871037 0 0 0.491217
91 2 72.8796 58.6081 0 3 1 1 -0.290922 0 0 0.956747
74 2 77.3864 57.0654 0 3 1 1 0.180795 0 0 0.983521
49 2 65.2879 59.4156 0 3 1 1 -0.845252 0 0 0.534367
118 2 80.2569 58.6068 0 3 1 1 -0.184231 0 0 0.982883
117 2 82.2496 63.2027 0 3 1 1 -0.701914 0 0 0.712262
119 2 85.1195 63.5612 0 3 1 1 -0.319699 0 0 0.947519
126 2 60.4259 64.9797 0 3 1 1 0.575028 0 0 0.818134
88 2 67.206 65.1061 0 3 1 1 0.944282 0 0 0.329139
132 2 73.357 66.4597 0 3 1 1 -0.99809 0 0 0.0617832
157 2 77.1772 67.206 0 3 1 1 -0.912349 0 0 -0.409414
159 2 85.3773 65.9534 0 3 1 1 0.306259 0 0 0.951948
161 2 55.9043 67.8925 0 3 1 1 -0.899662 0 0 0.436586
187 2 63.5345 68.2027 0 3 1 1 -0.993978 0 0 0.10958
139 2 81.9503 66.9032 0 3 1 1 0.348417 0 0 0.93734
221 2 54.2505 70.628 0 3 1 1 0.666453 0 0 0.745547
208 2 64.4849 70.5938 0 3 1 1 -0.808392 0 0 -0.588644
210 2 68.6947 70.4923 0 3 1 1 -0.599694 0 0 0.800229
214 2 73.5274 71.4387 0 3 1 1 -0.223246 0 0 0.974762
220 2 86.8932 69.4073 0 3 1 1 0.725503 0 0 -0.688219
256 2 79.8004 72.9562 0 3 1 1 0.369412 0 0 0.929266
284 2 60.3086 75.5473 0 3 1 1 -0.984617 0 0 0.174725
295 2 75.697 76.2503 0 3 1 1 0.996558 0 0 0.082903
326 2 62.9848 79.5421 0 3 1 1 -0.301523 0 0 0.953459
309 2 67.6353 77.3901 0 3 1 1 0.0735744 0 0 0.99729
329 2 70.4546 78.3729 0 3 1 1 0.98496 0 0 0.172782
296 2 76.2407 78.0976 0 3 1 1 -0.999909 0 0 0.0135105
339 2 83.329 78.5869 0 3 1 1 -0.932742 0 0 0.360545
301 2 86.6582 78.9808 0 3 1 1 0.939238 0 0 0.343266
342 2 55.5908 83.1598 0 3 1 1 -0.75044 0 0 0.660938
365 2 60.714 84.5592 0 3 1 1 -0.195784 0 0 0.980647
376 2 78.7051 84.1423 0 3 1 1 0.488195 0 0 0.872734
398 2 81.0392 83.3505 0 3 1 1 -0.498623 0 0 0.866819
359 2 85.6403 84.4927 0 3 1 1 -0.696223 0 0 0.717826
6 2 62.873 85.294 0 3 1 1 0.807251 0 0 -0.590208
9 2 66.8541 86.5954 0 3 1 1 0.91395 0 0 0.405828
369 2 66.6791 84.9466 0 3 1 1 0.981649 0 0 0.190698
395 2 77.3924 87.3322 0 3 1 1 0.77088 0 0 0.636981
36 2 81.8918 87.112 0 3 1 1 -0.669477 0 0 0.742832
ITEM: TIMESTEP
2300
ITEM: NUMBER OF ATOMS
45
ITEM: BOX BOUNDS pp pp pp
5.3934420299224513e+01 8.7486935938085082e+01
5.3934420299224513e+01 8.7486935938085082e+01
-3.5355339059327378e+00 3.5355339059327378e+00
ITEM: ATOMS id type x y z shapex shapey shapez quatw quati quatj quatk
24 2 59.6725 55.1783 0 3 1 1 0.583808 0 0 0.811892
50 2 66.9099 56.8356 0 3 1 1 -0.927108 0 0 0.374794
54 2 74.6496 56.0778 0 3 1 1 -0.250847 0 0 0.968027
79 2 85.165 55.7308 0 3 1 1 -0.126229 0 0 0.992001
20 2 54.0821 54.7005 0 3 1 1 -0.688837 0 0 0.724916
2 2 57.3749 56.2457 0 3 1 1 -0.0966622 0 0 0.995317
67 2 64.244 58.341 0 3 1 1 -0.864798 0 0 0.50212
91 2 73.0841 58.488 0 3 1 1 -0.404011 0 0 0.914754
74 2 77.4706 56.6188 0 3 1 1 0.207469 0 0 0.978242
49 2 65.3465 59.5251 0 3 1 1 -0.885977 0 0 0.463729
118 2 79.9884 58.3948 0 3 1 1 -0.141984 0 0 0.989869
117 2 82.1542 63.2555 0 3 1 1 -0.905255 0 0 0.424868
119 2 85.2876 63.7736 0 3 1 1 -0.205807 0 0 0.978593
126 2 60.3298 65.0191 0 3 1 1 0.5497 0 0 0.835362
88 2 67.2058 65.0961 0 3 1 1 0.973228 0 0 0.229841
132 2 73.6007 66.1765 0 3 1 1 -0.9983 0 0 0.0582828
157 2 76.952 67.4287 0 3 1 1 -0.825593 0 0 -0.564267
159 2 85.5077 66.2172 0 3 1 1 0.455654 0 0 0.890157
161 2 55.8954 67.5521 0 3 1 1 -0.854517 0 0 0.519424
187 2 63.5315 68.1668 0 3 1 1 -0.998737 0 0 0.0502369
139 2 81.7977 66.7795 0 3 1 1 0.279067 0 0 0.960272
221 2 54.5449 70.7086 0 3 1 1 0.819079 0 0 0.573681
208 2 64.4745 70.6139 0 3 1 1 -0.75142 0 0 -0.659824
210 2 68.8354 70.193 0 3 1 1 -0.668694 0 0 0.743538
214 2 73.1271 71.6947 0 3 1 1 -0.114509 0 0 0.993422
220 2 86.6768 68.9992 0 3 1 1 0.584417 0 0 -0.811454
256 2 79.6472 72.8061 0 3 1 1 0.136542 0 0 0.990634
284 2 60.612 75.4943 0 3 1 1 -0.990355 0 0 0.13855
295 2 75.4181 76.2726 0 3 1 1 0.980014 0 0 0.198926
326 2 63.0125 79.4533 0 3 1 1 -0.350094 0 0 0.936715
309 2 68.0387 77.4566 0 3 1 1 0.195616 0 0 0.980681
329 2 70.2709 78.1818 0 3 1 1 0.999127 0 0 0.0417698
296 2 76.3582 77.6313 0 3 1 1 -0.997996 0 0 0.0632713
339 2 83.3094 78.7106 0 3 1 1 -0.876509 0 0 0.481385
301 2 86.4986 78.9114 0 3 1 1 0.947587 0 0 0.319498
342 2 55.6893 83.5063 0 3 1 1 -0.642343 0 0 0.766417
365 2 60.7683 84.6782 0 3 1 1 -0.265752 0 0 0.964042
376 2 78.7535 83.9924 0 3 1 1 0.459754 0 0 0.888046
398 2 80.991 82.9288 0 3 1 1 -0.443573 0 0 0.896238
359 2 85.3736 84.4014 0 3 1 1 -0.549672 0 0 0.83538
6 2 62.8313 85.0207 0 3 1 1 0.813039 0 0 -0.582209
9 2 66.7553 86.7553 0 3 1 1 0.963371 0 0 0.268172
369 2 66.5244 84.8355 0 3 1 1 0.986884 0 0 0.161432
395 2 77.65 54.0115 0 3 1 1 0.805528 0 0 0.592558
36 2 81.688 86.9974 0 3 1 1 -0.819368 0 0 0.573268
ITEM: TIMESTEP
2400
ITEM: NUMBER OF ATOMS
45
ITEM: BOX BOUNDS pp pp pp
5.3934420299224513e+01 8.7486935938085082e+01
5.3934420299224513e+01 8.7486935938085082e+01
-3.5355339059327378e+00 3.5355339059327378e+00
ITEM: ATOMS id type x y z shapex shapey shapez quatw quati quatj quatk
24 2 59.6323 55.1171 0 3 1 1 0.726154 0 0 0.687532
50 2 67.2342 57.1122 0 3 1 1 -0.86029 0 0 0.509804
54 2 74.4737 56.1529 0 3 1 1 -0.0280449 0 0 0.999607
79 2 85.5573 55.7569 0 3 1 1 -0.0316167 0 0 0.9995
20 2 53.9496 54.8954 0 3 1 1 -0.42178 0 0 0.906698
2 2 57.5814 56.3343 0 3 1 1 -0.133801 0 0 0.991008
67 2 64.2699 58.3014 0 3 1 1 -0.88107 0 0 0.472986
91 2 73.3349 58.3475 0 3 1 1 -0.459378 0 0 0.888241
74 2 77.4845 56.2005 0 3 1 1 0.110288 0 0 0.9939
49 2 65.3837 59.6046 0 3 1 1 -0.870345 0 0 0.492442
118 2 79.7138 58.2269 0 3 1 1 -0.0704707 0 0 0.997514
117 2 82.1867 63.358 0 3 1 1 -0.99663 0 0 0.0820326
119 2 85.4637 64.0179 0 3 1 1 0.00527605 0 0 0.999986
126 2 60.4093 65.1609 0 3 1 1 0.482532 0 0 0.875878
88 2 67.3348 64.905 0 3 1 1 0.991012 0 0 0.133769
132 2 73.7114 65.9747 0 3 1 1 -0.997644 0 0 0.0686011
157 2 76.7455 67.7508 0 3 1 1 -0.722712 0 0 -0.691149
159 2 85.5459 66.4026 0 3 1 1 0.542117 0 0 0.840303
161 2 55.7877 67.2855 0 3 1 1 -0.767639 0 0 0.640882
187 2 63.5569 68.0266 0 3 1 1 -0.99989 0 0 0.0148032
139 2 81.6491 66.7294 0 3 1 1 0.266755 0 0 0.963764
221 2 54.8434 70.3585 0 3 1 1 0.911066 0 0 0.41226
208 2 64.5379 70.6624 0 3 1 1 -0.716575 0 0 -0.697511
210 2 68.9531 70.3708 0 3 1 1 -0.704158 0 0 0.710043
214 2 73.178 71.7697 0 3 1 1 -0.30967 0 0 0.950844
220 2 86.4347 68.6408 0 3 1 1 0.532323 0 0 -0.846541
256 2 79.5646 72.9827 0 3 1 1 0.00398644 0 0 0.999992
284 2 60.897 75.4493 0 3 1 1 -0.985707 0 0 0.168466
295 2 75.2219 76.0067 0 3 1 1 0.999629 0 0 -0.0272356
326 2 62.93 79.4718 0 3 1 1 -0.519772 0 0 0.854305
309 2 68.297 77.5924 0 3 1 1 0.193708 0 0 0.981059
329 2 70.4487 78.0897 0 3 1 1 0.998906 0 0 0.0467616
296 2 76.6463 77.5513 0 3 1 1 -0.991833 0 0 0.127545
339 2 83.06 78.7465 0 3 1 1 -0.879867 0 0 0.475219
301 2 86.5468 78.9675 0 3 1 1 0.966233 0 0 0.257672
342 2 55.6195 83.8891 0 3 1 1 -0.639374 0 0 0.768896
365 2 60.5833 84.79 0 3 1 1 -0.497175 0 0 0.86765
376 2 78.8195 83.8414 0 3 1 1 0.423947 0 0 0.905687
398 2 80.9656 82.5749 0 3 1 1 -0.310426 0 0 0.950598
359 2 85.2174 84.257 0 3 1 1 -0.417453 0 0 0.908699
6 2 62.9241 84.7118 0 3 1 1 0.931519 0 0 -0.363693
9 2 66.6975 86.6207 0 3 1 1 0.981938 0 0 0.189205
369 2 66.3517 84.8017 0 3 1 1 0.992446 0 0 0.122684
395 2 77.786 54.1777 0 3 1 1 0.880152 0 0 0.474692
36 2 81.9559 86.9298 0 3 1 1 -0.82504 0 0 0.565075
ITEM: TIMESTEP
2500
ITEM: NUMBER OF ATOMS
45
ITEM: BOX BOUNDS pp pp pp
5.3934420299224513e+01 8.7486935938085082e+01
5.3934420299224513e+01 8.7486935938085082e+01
-3.5355339059327378e+00 3.5355339059327378e+00
ITEM: ATOMS id type x y z shapex shapey shapez quatw quati quatj quatk
24 2 59.3954 55.0498 0 3 1 1 0.761767 0 0 0.647851
50 2 67.5515 57.228 0 3 1 1 -0.85443 0 0 0.519566
54 2 74.3086 56.4037 0 3 1 1 0.173293 0 0 0.98487
79 2 85.9485 55.6533 0 3 1 1 -0.074767 0 0 0.997201
20 2 87.4619 54.9797 0 3 1 1 -0.350745 0 0 0.936471
2 2 57.9916 56.584 0 3 1 1 -0.0694409 0 0 0.997586
67 2 64.3731 58.2634 0 3 1 1 -0.870922 0 0 0.491421
91 2 73.5924 58.185 0 3 1 1 -0.477721 0 0 0.878512
74 2 77.4488 56.0197 0 3 1 1 -0.206295 0 0 0.97849
49 2 65.4063 59.8441 0 3 1 1 -0.837682 0 0 0.546158
118 2 79.4782 58.0248 0 3 1 1 0.0792397 0 0 0.996856
117 2 82.4484 63.2738 0 3 1 1 -0.994298 0 0 -0.106637
119 2 85.5273 64.3945 0 3 1 1 0.174934 0 0 0.98458
126 2 60.578 64.9935 0 3 1 1 0.400914 0 0 0.916116
88 2 67.4826 65.0027 0 3 1 1 0.941915 0 0 0.335851
132 2 73.8291 65.8345 0 3 1 1 -0.996433 0 0 0.0843892
157 2 76.8094 68.0098 0 3 1 1 -0.766119 0 0 -0.642699
159 2 85.1642 66.2269 0 3 1 1 0.36534 0 0 0.930874
161 2 55.6904 66.9987 0 3 1 1 -0.667873 0 0 0.744275
187 2 63.6621 68.0475 0 3 1 1 -0.99844 0 0 0.0558311
139 2 81.4989 66.665 0 3 1 1 0.233442 0 0 0.972371
221 2 54.7095 70.2624 0 3 1 1 0.868648 0 0 0.49543
208 2 64.7222 70.3886 0 3 1 1 -0.69847 0 0 -0.715639
210 2 68.9982 70.5807 0 3 1 1 -0.653605 0 0 0.756836
214 2 73.2946 72.0991 0 3 1 1 -0.051498 0 0 0.998673
220 2 86.6444 68.6454 0 3 1 1 0.662404 0 0 -0.749147
256 2 79.4869 73.1047 0 3 1 1 -0.0620861 0 0 0.998071
284 2 60.9053 75.4798 0 3 1 1 -0.963441 0 0 0.26792
295 2 75.1307 75.9008 0 3 1 1 0.997823 0 0 -0.0659494
326 2 62.9441 79.4523 0 3 1 1 -0.64599 0 0 0.763346
309 2 68.687 77.665 0 3 1 1 0.285727 0 0 0.958311
329 2 70.8089 78.3691 0 3 1 1 0.999754 0 0 0.022195
296 2 77.0858 77.5499 0 3 1 1 -0.978599 0 0 0.205775
339 2 82.7571 78.6455 0 3 1 1 -0.936736 0 0 0.350037
301 2 86.5751 79.0767 0 3 1 1 0.981167 0 0 0.193163
342 2 55.9031 84.0842 0 3 1 1 -0.339662 0 0 0.940548
365 2 60.3648 84.9022 0 3 1 1 -0.712543 0 0 0.701628
376 2 78.689 83.563 0 3 1 1 0.55035 0 0 0.834934
398 2 80.8329 82.2949 0 3 1 1 -0.213596 0 0 0.976922
359 2 85.2453 84.0857 0 3 1 1 -0.455701 0 0 0.890133
6 2 63.1039 84.4276 0 3 1 1 0.978304 0 0 -0.207175
9 2 66.6031 86.6227 0 3 1 1 0.979288 0 0 0.202471
369 2 66.2238 84.6688 0 3 1 1 0.980037 0 0 0.198817
395 2 77.8931 54.1046 0 3 1 1 0.851963 0 0 0.523602
36 2 82.3985 86.8299 0 3 1 1 -0.715823 0 0 0.698282
ITEM: TIMESTEP
2600
ITEM: NUMBER OF ATOMS
45
ITEM: BOX BOUNDS pp pp pp
5.3934420299224513e+01 8.7486935938085082e+01
5.3934420299224513e+01 8.7486935938085082e+01
-3.5355339059327378e+00 3.5355339059327378e+00
ITEM: ATOMS id type x y z shapex shapey shapez quatw quati quatj quatk
24 2 59.2257 55.0196 0 3 1 1 0.784674 0 0 0.619908
50 2 67.7148 57.3833 0 3 1 1 -0.806343 0 0 0.591448
54 2 74.3382 56.1643 0 3 1 1 -0.0393516 0 0 0.999225
79 2 86.2336 55.8356 0 3 1 1 -0.164344 0 0 0.986403
20 2 87.4455 54.9227 0 3 1 1 -0.396184 0 0 0.918171
2 2 58.2876 56.8811 0 3 1 1 -0.00124935 0 0 0.999999
67 2 64.5148 58.1875 0 3 1 1 -0.883686 0 0 0.468079
91 2 73.2762 58.3085 0 3 1 1 -0.442415 0 0 0.89681
74 2 77.3968 56.2718 0 3 1 1 -0.156764 0 0 0.987636
49 2 65.4198 60.0705 0 3 1 1 -0.762151 0 0 0.647399
118 2 79.2856 57.7973 0 3 1 1 0.25328 0 0 0.967393
117 2 82.7115 63.0972 0 3 1 1 -0.976437 0 0 -0.215801
119 2 85.4624 64.5683 0 3 1 1 0.0895857 0 0 0.995979
126 2 60.846 64.7773 0 3 1 1 0.362215 0 0 0.932094
88 2 67.6144 65.126 0 3 1 1 0.900794 0 0 0.434247
132 2 73.6716 65.94 0 3 1 1 -0.998913 0 0 0.0466213
157 2 76.9114 68.228 0 3 1 1 -0.711312 0 0 -0.702877
159 2 84.9744 66.1866 0 3 1 1 0.336012 0 0 0.941858
161 2 55.583 66.7099 0 3 1 1 -0.536479 0 0 0.843914
187 2 63.668 68.0456 0 3 1 1 -0.999229 0 0 0.0392691
139 2 81.3292 66.4982 0 3 1 1 0.217999 0 0 0.975949
221 2 54.6821 70.1819 0 3 1 1 0.710394 0 0 0.703805
208 2 64.7706 69.9538 0 3 1 1 -0.769067 0 0 -0.639168
210 2 69.0306 70.7709 0 3 1 1 -0.606943 0 0 0.794745
214 2 73.5505 71.7326 0 3 1 1 -0.279812 0 0 0.960055
220 2 86.9329 68.5697 0 3 1 1 0.630072 0 0 -0.776537
256 2 79.4522 73.2141 0 3 1 1 -0.0479998 0 0 0.998847
284 2 60.8251 75.819 0 3 1 1 -0.972898 0 0 0.231236
295 2 75.038 75.9106 0 3 1 1 0.994156 0 0 0.107956
326 2 63.3978 79.198 0 3 1 1 -0.434344 0 0 0.900747
309 2 68.9282 77.6087 0 3 1 1 0.32377 0 0 0.946136
329 2 71.1386 78.3899 0 3 1 1 0.999744 0 0 0.0226271
296 2 77.398 77.5045 0 3 1 1 -0.92554 0 0 0.378651
339 2 82.6821 78.6835 0 3 1 1 -0.929046 0 0 0.369964
301 2 86.5778 79.1802 0 3 1 1 0.989824 0 0 0.1423
342 2 55.9615 84.396 0 3 1 1 -0.453681 0 0 0.891164
365 2 60.1183 85.0109 0 3 1 1 -0.876672 0 0 0.481088
376 2 78.5925 83.2388 0 3 1 1 0.691308 0 0 0.72256
398 2 80.6514 82.296 0 3 1 1 -0.122184 0 0 0.992507
359 2 85.0563 84.1426 0 3 1 1 -0.572741 0 0 0.819736
6 2 63.2926 84.5346 0 3 1 1 0.999921 0 0 -0.0125436
9 2 66.562 86.5862 0 3 1 1 0.978499 0 0 0.20625
369 2 66.3204 84.6828 0 3 1 1 0.958644 0 0 0.284607
395 2 78.1348 54.1994 0 3 1 1 0.887833 0 0 0.460166
36 2 82.659 86.5849 0 3 1 1 -0.776734 0 0 0.629828
ITEM: TIMESTEP
2700
ITEM: NUMBER OF ATOMS
45
ITEM: BOX BOUNDS pp pp pp
5.3934420299224513e+01 8.7486935938085082e+01
5.3934420299224513e+01 8.7486935938085082e+01
-3.5355339059327378e+00 3.5355339059327378e+00
ITEM: ATOMS id type x y z shapex shapey shapez quatw quati quatj quatk
24 2 59.3319 54.9255 0 3 1 1 0.856632 0 0 0.515927
50 2 67.8434 57.5235 0 3 1 1 -0.840195 0 0 0.542284
54 2 74.4051 55.8161 0 3 1 1 -0.196367 0 0 0.98053
79 2 86.4135 56.1341 0 3 1 1 -0.226154 0 0 0.974091
20 2 54.0114 54.7642 0 3 1 1 -0.50241 0 0 0.864629
2 2 58.4738 57.0622 0 3 1 1 0.0324239 0 0 0.999474
67 2 64.6045 58.1453 0 3 1 1 -0.856636 0 0 0.515922
91 2 72.9346 58.4857 0 3 1 1 -0.410403 0 0 0.911904
74 2 77.3409 56.5149 0 3 1 1 -0.091472 0 0 0.995808
49 2 65.4815 60.2909 0 3 1 1 -0.766293 0 0 0.642491
118 2 79.1616 57.5463 0 3 1 1 0.37561 0 0 0.926778
117 2 82.9418 62.8768 0 3 1 1 -0.95962 0 0 -0.281299
119 2 85.2568 64.3532 0 3 1 1 -0.0643627 0 0 0.997927
126 2 61.0743 64.5776 0 3 1 1 0.377331 0 0 0.926079
88 2 67.6836 65.2543 0 3 1 1 0.863565 0 0 0.504238
132 2 73.4002 65.9731 0 3 1 1 -0.97603 0 0 0.217635
157 2 77.5021 68.1467 0 3 1 1 -0.634477 0 0 -0.772941
159 2 85.0313 66.4517 0 3 1 1 0.273956 0 0 0.961742
161 2 55.4586 66.4228 0 3 1 1 -0.349536 0 0 0.936923
187 2 63.4557 67.8959 0 3 1 1 -0.993546 0 0 0.113433
139 2 81.1679 66.2324 0 3 1 1 0.160889 0 0 0.986972
221 2 54.6711 70.0933 0 3 1 1 0.453526 0 0 0.891243
208 2 65.0155 70.0147 0 3 1 1 -0.875289 0 0 -0.4836
210 2 68.8848 70.9787 0 3 1 1 -0.722919 0 0 0.690933
214 2 73.3029 72.0406 0 3 1 1 -0.177004 0 0 0.98421
220 2 87.116 68.5442 0 3 1 1 0.616205 0 0 -0.787586
256 2 79.4683 73.3232 0 3 1 1 -0.115412 0 0 0.993318
284 2 60.7226 76.0815 0 3 1 1 -0.937846 0 0 0.347052
295 2 75.0934 75.8134 0 3 1 1 0.978647 0 0 0.20555
326 2 63.5639 79.221 0 3 1 1 -0.263732 0 0 0.964596
309 2 69.1591 77.3869 0 3 1 1 0.384084 0 0 0.923298
329 2 71.1678 78.4858 0 3 1 1 0.999744 0 0 -0.0226086
296 2 77.8436 77.6704 0 3 1 1 -0.926974 0 0 0.375125
339 2 82.3334 78.6899 0 3 1 1 -0.90158 0 0 0.432613
301 2 86.5223 79.2506 0 3 1 1 0.983991 0 0 0.178217
342 2 56.021 84.6775 0 3 1 1 -0.544061 0 0 0.839045
365 2 59.9208 85.1892 0 3 1 1 -0.971857 0 0 0.23557
376 2 78.5745 82.8329 0 3 1 1 0.770724 0 0 0.637169
398 2 80.4266 82.357 0 3 1 1 -0.166667 0 0 0.986013
359 2 84.8755 84.0654 0 3 1 1 -0.723474 0 0 0.690352
6 2 63.1213 84.5587 0 3 1 1 0.991773 0 0 -0.128012
9 2 66.4102 86.607 0 3 1 1 0.983672 0 0 0.179969
369 2 66.7016 84.8778 0 3 1 1 0.917611 0 0 0.39748
395 2 78.3002 54.2667 0 3 1 1 0.948478 0 0 0.316844
36 2 82.6045 86.302 0 3 1 1 -0.715145 0 0 0.698976
ITEM: TIMESTEP
2800
ITEM: NUMBER OF ATOMS
45
ITEM: BOX BOUNDS pp pp pp
5.3934420299224513e+01 8.7486935938085082e+01
5.3934420299224513e+01 8.7486935938085082e+01
-3.5355339059327378e+00 3.5355339059327378e+00
ITEM: ATOMS id type x y z shapex shapey shapez quatw quati quatj quatk
24 2 59.4172 54.8591 0 3 1 1 0.942427 0 0 0.334413
50 2 67.95 57.6715 0 3 1 1 -0.887118 0 0 0.461543
54 2 74.2986 55.8003 0 3 1 1 -0.165235 0 0 0.986254
79 2 86.6967 56.505 0 3 1 1 -0.333696 0 0 0.942681
20 2 54.1267 54.5776 0 3 1 1 -0.611556 0 0 0.791201
2 2 58.7205 57.108 0 3 1 1 -0.116027 0 0 0.993246
67 2 64.7417 58.1628 0 3 1 1 -0.872052 0 0 0.489414
91 2 72.6415 58.7239 0 3 1 1 -0.401972 0 0 0.915652
74 2 77.2908 56.5818 0 3 1 1 0.0225328 0 0 0.999746
49 2 65.5173 60.5376 0 3 1 1 -0.773646 0 0 0.633618
118 2 79.1854 57.4037 0 3 1 1 0.402881 0 0 0.915253
117 2 83.0401 62.436 0 3 1 1 -0.987149 0 0 -0.159804
119 2 85.2638 64.3343 0 3 1 1 -0.00589143 0 0 0.999983
126 2 61.365 64.4878 0 3 1 1 0.329419 0 0 0.944184
88 2 67.7463 65.1024 0 3 1 1 0.896301 0 0 0.443447
132 2 73.1993 66.1554 0 3 1 1 -0.918748 0 0 0.394845
157 2 77.321 68.1705 0 3 1 1 -0.793489 0 0 -0.608585
159 2 84.9821 66.6431 0 3 1 1 0.100821 0 0 0.994905
161 2 55.2714 66.2698 0 3 1 1 -0.111493 0 0 0.993765
187 2 63.3 67.8379 0 3 1 1 -0.99473 0 0 0.102527
139 2 81.1439 66.2184 0 3 1 1 0.246697 0 0 0.969093
221 2 54.7766 70.0816 0 3 1 1 0.215246 0 0 0.97656
208 2 65.2941 70.161 0 3 1 1 -0.915623 0 0 -0.402038
210 2 68.7454 71.1879 0 3 1 1 -0.817404 0 0 0.576064
214 2 73.207 72.1937 0 3 1 1 -0.123342 0 0 0.992364
220 2 87.1247 68.4555 0 3 1 1 0.737693 0 0 -0.675136
256 2 79.4481 73.3797 0 3 1 1 -0.062382 0 0 0.998052
284 2 60.5917 76.6617 0 3 1 1 -0.867503 0 0 0.497433
295 2 75.1811 75.8752 0 3 1 1 0.959525 0 0 0.281625
326 2 63.4573 79.3938 0 3 1 1 -0.386312 0 0 0.922368
309 2 69.3774 77.4849 0 3 1 1 0.56366 0 0 0.826007
329 2 71.1604 78.8855 0 3 1 1 0.988394 0 0 -0.151913
296 2 78.0118 77.6504 0 3 1 1 -0.922255 0 0 0.386582
339 2 81.8397 78.4851 0 3 1 1 -0.925637 0 0 0.378412
301 2 86.5645 79.2488 0 3 1 1 0.991246 0 0 0.132031
342 2 56.1895 84.744 0 3 1 1 -0.49363 0 0 0.869672
365 2 59.8469 85.4371 0 3 1 1 -0.999178 0 0 -0.040548
376 2 78.536 82.445 0 3 1 1 0.831441 0 0 0.555613
398 2 80.3431 82.1959 0 3 1 1 -0.215019 0 0 0.97661
359 2 84.8327 84.0015 0 3 1 1 -0.723157 0 0 0.690684
6 2 62.9889 84.8096 0 3 1 1 0.98463 0 0 -0.174651
9 2 66.2476 86.7413 0 3 1 1 0.984378 0 0 0.176067
369 2 66.7713 85.0447 0 3 1 1 0.797316 0 0 0.603562
395 2 78.4803 54.2347 0 3 1 1 0.985459 0 0 0.169915
36 2 82.1838 85.9997 0 3 1 1 -0.666708 0 0 0.745319
ITEM: TIMESTEP
2900
ITEM: NUMBER OF ATOMS
45
ITEM: BOX BOUNDS pp pp pp
5.3934420299224513e+01 8.7486935938085082e+01
5.3934420299224513e+01 8.7486935938085082e+01
-3.5355339059327378e+00 3.5355339059327378e+00
ITEM: ATOMS id type x y z shapex shapey shapez quatw quati quatj quatk
24 2 59.2915 54.9243 0 3 1 1 0.964361 0 0 0.264589
50 2 67.9976 57.7367 0 3 1 1 -0.952279 0 0 0.305227
54 2 74.1955 55.9333 0 3 1 1 -0.057187 0 0 0.998363
79 2 86.8926 56.8825 0 3 1 1 -0.363796 0 0 0.931478
20 2 54.1528 54.3651 0 3 1 1 -0.669472 0 0 0.742837
2 2 58.9207 56.9009 0 3 1 1 0.0114385 0 0 0.999935
67 2 64.8763 58.1815 0 3 1 1 -0.891511 0 0 0.452998
91 2 72.3443 58.9564 0 3 1 1 -0.400299 0 0 0.916385
74 2 77.139 56.5092 0 3 1 1 0.154124 0 0 0.988051
49 2 65.4786 60.7481 0 3 1 1 -0.80285 0 0 0.596181
118 2 79.3062 57.3217 0 3 1 1 0.363401 0 0 0.931633
117 2 83.0525 62.1063 0 3 1 1 -0.976294 0 0 -0.216446
119 2 85.3069 64.2644 0 3 1 1 0.143483 0 0 0.989653
126 2 61.5028 64.2377 0 3 1 1 0.349206 0 0 0.937046
88 2 68.1298 65.4146 0 3 1 1 0.929173 0 0 0.369645
132 2 73.1543 66.3648 0 3 1 1 -0.873651 0 0 0.486553
157 2 77.272 68.2309 0 3 1 1 -0.673081 0 0 -0.739568
159 2 84.9925 66.8998 0 3 1 1 0.0188379 0 0 0.999823
161 2 55.0535 66.1827 0 3 1 1 0.206159 0 0 0.978518
187 2 63.0659 67.7744 0 3 1 1 -0.981701 0 0 0.19043
139 2 81.2213 66.2838 0 3 1 1 0.31294 0 0 0.949773
221 2 54.8585 70.0732 0 3 1 1 -0.0598497 0 0 0.998207
208 2 65.4863 70.0487 0 3 1 1 -0.954185 0 0 -0.299219
210 2 68.6427 70.9985 0 3 1 1 -0.793198 0 0 0.608963
214 2 73.1726 72.1484 0 3 1 1 0.157581 0 0 0.987506
220 2 87.0628 68.3684 0 3 1 1 0.877462 0 0 -0.479647
256 2 79.3215 73.4486 0 3 1 1 0.056997 0 0 0.998374
284 2 60.4336 77.1288 0 3 1 1 -0.850881 0 0 0.525358
295 2 75.5996 75.8261 0 3 1 1 0.899306 0 0 0.43732
326 2 63.6333 79.2939 0 3 1 1 -0.321668 0 0 0.946852
309 2 69.7399 77.5162 0 3 1 1 0.723045 0 0 0.690801
329 2 71.1592 78.8805 0 3 1 1 0.990751 0 0 -0.135692
296 2 78.2414 77.7164 0 3 1 1 -0.859853 0 0 0.510542
339 2 81.6973 78.5423 0 3 1 1 -0.950623 0 0 0.310347
301 2 86.7027 79.3795 0 3 1 1 0.968061 0 0 0.250716
342 2 56.4469 84.6251 0 3 1 1 -0.326752 0 0 0.94511
365 2 59.817 85.5976 0 3 1 1 -0.945851 0 0 -0.324602
376 2 78.4497 82.0772 0 3 1 1 0.907903 0 0 0.419181
398 2 80.0199 82.0176 0 3 1 1 -0.294801 0 0 0.955559
359 2 84.7948 83.8638 0 3 1 1 -0.715479 0 0 0.698634
6 2 62.7479 84.9058 0 3 1 1 0.961481 0 0 -0.274872
9 2 66.03 86.7683 0 3 1 1 0.986489 0 0 0.163825
369 2 66.8383 85.2575 0 3 1 1 0.830968 0 0 0.55632
395 2 78.6901 54.1615 0 3 1 1 0.999519 0 0 0.0310205
36 2 81.7486 85.773 0 3 1 1 -0.659922 0 0 0.751334
ITEM: TIMESTEP
3000
ITEM: NUMBER OF ATOMS
45
ITEM: BOX BOUNDS pp pp pp
5.3934420299224513e+01 8.7486935938085082e+01
5.3934420299224513e+01 8.7486935938085082e+01
-3.5355339059327378e+00 3.5355339059327378e+00
ITEM: ATOMS id type x y z shapex shapey shapez quatw quati quatj quatk
24 2 59.2946 54.9478 0 3 1 1 0.969568 0 0 0.244823
50 2 68.1418 57.7419 0 3 1 1 -0.973563 0 0 0.228418
54 2 74.0262 56.3033 0 3 1 1 -0.144002 0 0 0.989577
79 2 87.1054 57.2748 0 3 1 1 -0.284868 0 0 0.958567
20 2 54.2203 54.0581 0 3 1 1 -0.631872 0 0 0.775073
2 2 59.1147 56.6669 0 3 1 1 0.126331 0 0 0.991988
67 2 64.8246 58.0607 0 3 1 1 -0.817021 0 0 0.576608
91 2 72.1261 59.1897 0 3 1 1 -0.299363 0 0 0.954139
74 2 76.9394 56.3444 0 3 1 1 0.224626 0 0 0.974445
49 2 65.5338 60.9825 0 3 1 1 -0.848603 0 0 0.52903
118 2 79.456 57.2139 0 3 1 1 0.303668 0 0 0.952778
117 2 82.9589 61.9062 0 3 1 1 -0.883579 0 0 -0.468282
119 2 85.4073 64.2654 0 3 1 1 0.0699222 0 0 0.997552
126 2 61.7369 63.9879 0 3 1 1 0.234586 0 0 0.972095
88 2 68.5256 65.6351 0 3 1 1 0.961151 0 0 0.276025
132 2 72.6508 66.1353 0 3 1 1 -0.745986 0 0 0.665962
157 2 77.6299 68.1632 0 3 1 1 -0.662131 0 0 -0.749388
159 2 84.9576 66.9392 0 3 1 1 -0.3085 0 0 0.951224
161 2 54.9295 66.3377 0 3 1 1 0.36926 0 0 0.929326
187 2 62.8142 67.9452 0 3 1 1 -0.979908 0 0 0.199448
139 2 81.167 66.1806 0 3 1 1 0.517482 0 0 0.855694
221 2 54.8852 70.0641 0 3 1 1 -0.315146 0 0 0.949043
208 2 65.8522 69.8426 0 3 1 1 -0.959258 0 0 -0.282533
210 2 68.7144 71.1013 0 3 1 1 -0.743412 0 0 0.668834
214 2 73.0729 72.0228 0 3 1 1 0.292918 0 0 0.956138
220 2 86.9254 68.3306 0 3 1 1 0.964212 0 0 -0.265133
256 2 78.9954 73.0623 0 3 1 1 0.248076 0 0 0.968741
284 2 60.3313 77.6574 0 3 1 1 -0.754863 0 0 0.655883
295 2 75.5964 75.9883 0 3 1 1 0.913649 0 0 0.406504
326 2 63.6638 79.3001 0 3 1 1 -0.299394 0 0 0.95413
309 2 69.6086 77.4518 0 3 1 1 0.75113 0 0 0.660155
329 2 71.3181 79.056 0 3 1 1 0.976724 0 0 -0.214499
296 2 78.3288 77.5878 0 3 1 1 -0.877143 0 0 0.48023
339 2 81.4452 78.4849 0 3 1 1 -0.99069 0 0 0.136139
301 2 86.7038 79.524 0 3 1 1 0.924318 0 0 0.381623
342 2 56.6945 84.491 0 3 1 1 -0.150363 0 0 0.988631
365 2 59.7832 85.7578 0 3 1 1 -0.84061 0 0 -0.541642
376 2 78.3098 81.7868 0 3 1 1 0.913317 0 0 0.40725
398 2 79.8048 81.8331 0 3 1 1 -0.316716 0 0 0.94852
359 2 84.8659 83.7314 0 3 1 1 -0.714586 0 0 0.699548
6 2 62.5884 85.1419 0 3 1 1 0.929684 0 0 -0.368358
9 2 65.7821 86.7343 0 3 1 1 0.990621 0 0 0.136638
369 2 66.9225 85.4161 0 3 1 1 0.853757 0 0 0.520672
395 2 78.9041 54.1061 0 3 1 1 0.999994 0 0 -0.00357577
36 2 81.6527 85.8593 0 3 1 1 -0.712357 0 0 0.701817
