LAMMPS data file via write_data, version 29 Sep 2021, timestep = 1000000

15 atoms
1 atom types
14 bonds
1 bond types
15 ellipsoids

-30 30 xlo xhi
-30 30 ylo yhi
-30 30 zlo zhi

Masses

1 2.212927311210672e-99

Pair Coeffs # gayberne

1 1 1 1 1 1 1 1 1

Bond Coeffs # harmonic

1 80 1.2

Atoms # hybrid

1 1 -1.9316854457854815 1 0 1 1 0.6366 0 0 0
2 1 -0.684955972013851 1 0 1 1 0.3333 0 0 0
3 1 0.6574138803992784 1 0 1 1 0.3333 0 0 0
4 1 2.0147398348929704 1 0 1 1 0.3333 0 0 0
5 1 3.386349778730052 1 0 1 1 0.3333 0 0 0
6 1 4.84911027684533 1 0 1 1 0.3333 0 0 0
12 1 13.753291184363256 1 0 1 1 0.3333 0 0 0
15 1 17.586049264255468 1 0 1 1 0.3333 0 0 0
7 1 6.408078093935118 1 0 1 1 0.3333 0 0 0
8 1 8.005738242535028 1 0 1 1 0.3333 0 0 0
9 1 9.555881671688809 1 0 1 1 0.3333 0 0 0
10 1 11.016183091929534 1 0 1 1 0.3333 0 0 0
11 1 12.403967003137517 1 0 1 1 0.3333 0 0 0
14 1 16.36195108321432 1 0 1 1 0.3333 0 0 0
13 1 15.085695378665656 1 0 1 1 0.3333 0 0 0

Velocities

1 0.20634426330477496 0 0 0 0 0
2 1.3586586028706047 0 0 0 0 0
3 1.5623600548150356 0 0 0 0 0
4 2.255146866601898 0 0 0 0 0
5 1.9782527179004534 0 0 0 0 0
6 0.7647478254408812 0 0 0 0 0
12 -2.422185648095204 0 0 0 0 0
15 0.11294379907797972 0 0 0 0 0
7 -0.05250831336729836 0 0 0 0 0
8 0.18542485811677906 0 0 0 0 0
9 -0.038133022386743196 0 0 0 0 0
10 -1.3191920750248685 0 0 0 0 0
11 -2.664155893806661 0 0 0 0 0
14 -0.8855352428053966 0 0 0 0 0
13 -1.2299402149658982 0 0 0 0 0

Bonds

1 1 1 2
2 1 2 3
3 1 3 4
4 1 4 5
5 1 5 6
6 1 6 7
7 1 12 13
8 1 7 8
9 1 8 9
10 1 9 10
11 1 10 11
12 1 11 12
13 1 14 15
14 1 13 14

Ellipsoids

1 1 1 3 1 0 0 0
2 1 1 3 1 0 0 0
3 1 1 3 1 0 0 0
4 1 1 3 1 0 0 0
5 1 1 3 1 0 0 0
6 1 1 3 1 0 0 0
12 1 1 3 1 0 0 0
15 1 1 3 1 0 0 0
7 1 1 3 1 0 0 0
8 1 1 3 1 0 0 0
9 1 1 3 1 0 0 0
10 1 1 3 1 0 0 0
11 1 1 3 1 0 0 0
14 1 1 3 1 0 0 0
13 1 1 3 1 0 0 0
