ITEM: TIMESTEP
0
ITEM: NUMBER OF ENTRIES
104
ITEM: BOX BOUNDS pp pp pp
4.8093292031640807e+01 7.5926288568320928e+01
4.8093292031640807e+01 7.5926288568320928e+01
4.8093292031640807e+01 7.5926288568320928e+01
ITEM: ENTRIES index c2_pl[1] c2_pl[2] c2_pl[3] c2_bl[1] c2_bl[2] 
1 6 14 15 1.10344 0.00204896 
2 6 14 16 1.10345 0.00206734 
3 6 14 17 1.10319 0.00165339 
4 2 4 11 1.51438 4.61263e-05 
5 3 4 29 1.21379 0.0040382 
6 2 4 5 1.50791 0.0116915 
7 6 11 12 1.10582 0.00792809 
8 6 11 13 1.09953 0.000750212 
9 5 10 18 1.5374 0.0162285 
10 5 10 11 1.53669 0.013264 
11 5 10 14 1.53969 0.0276829 
12 6 55482 55483 1.10352 0.0021818 
13 6 55482 55484 1.10291 0.00125272 
14 6 55482 55485 1.10344 0.00204362 
15 6 18 19 1.10337 0.00192552 
16 6 18 20 1.10298 0.00134578 
17 6 18 21 1.10335 0.00189813 
18 4 55513 55494 1.49834 0.0784653 
19 3 55513 55517 1.21403 0.00321081 
20 2 55513 55514 1.51888 0.0073733 
21 8 55469 55468 1.09536 0.0111111 
22 5 55461 55488 1.52745 0.00195976 
23 5 55461 55464 1.53598 0.0106224 
24 6 55461 55462 1.10487 0.00513813 
25 6 55461 55463 1.10474 0.00479223 
26 4 55487 55468 1.49646 0.0986141 
27 3 55487 55491 1.21399 0.00334428 
28 2 55487 55488 1.51752 0.00385052 
29 4 55470 55468 1.50151 0.0496485 
30 3 55470 55486 1.21417 0.00277276 
31 2 55470 55471 1.51494 0.000278221 
32 6 55488 55489 1.10561 0.00726153 
33 6 55488 55490 1.10563 0.00733818 
34 5 55471 55474 1.53642 0.0122288 
35 6 55471 55472 1.10579 0.00785544 
36 6 55471 55473 1.09964 0.000636092 
37 5 55464 55514 1.53479 0.00681797 
38 6 55464 55465 1.10423 0.00357926 
39 6 55464 55466 1.10522 0.00608694 
40 6 55514 55515 1.10562 0.00728922 
41 6 55514 55516 1.105 0.00547003 
42 6 55478 55479 1.10333 0.00186025 
43 6 55478 55480 1.1033 0.00181369 
44 6 55478 55481 1.10331 0.00182669 
45 6 55475 55476 1.09956 0.000720583 
46 6 55475 55477 1.10582 0.00792716 
47 5 55474 55482 1.53963 0.027359 
48 5 55474 55475 1.53613 0.0111552 
49 5 55474 55478 1.53747 0.0165065 
50 2 55467 55475 1.51464 0.000129072 
51 3 55467 55492 1.21397 0.00342168 
52 4 55467 55468 1.50103 0.0535407 
53 6 55504 55505 1.10319 0.00164761 
54 6 55504 55506 1.10358 0.002287 
55 6 55504 55507 1.1035 0.00213967 
56 6 55501 55502 1.10046 9.96791e-05 
57 6 55501 55503 1.1056 0.00721898 
58 2 55493 55501 1.51235 0.000857191 
59 3 55493 55518 1.21511 0.000658115 
60 4 55493 55494 1.51178 0.00154529 
61 8 55495 55494 1.10044 0.000109695 
62 9 30 31 1.00793 0.00173949 
63 9 30 32 1.00816 0.00215846 
64 7 33 30 1.4606 0.00471879 
65 5 33 36 1.53563 0.00941458 
66 6 33 34 1.1037 0.00250147 
67 6 33 35 1.10289 0.00122132 
68 5 55500 55508 1.53636 0.0120045 
69 5 55500 55501 1.53221 0.00145549 
70 5 55500 55504 1.53894 0.0235913 
71 6 55508 55509 1.09922 0.00109729 
72 6 55508 55510 1.10366 0.00243483 
73 6 55508 55511 1.10357 0.00226049 
74 5 55497 55500 1.53173 0.000889144 
75 6 55497 55498 1.10502 0.0055242 
76 6 55497 55499 1.09971 0.000577096 
77 4 55496 55494 1.51038 0.00411784 
78 3 55496 55512 1.21543 0.00027192 
79 2 55496 55497 1.51176 0.00157881 
80 6 45 46 1.10212 0.00043048 
81 6 45 47 1.10171 0.00017376 
82 6 45 48 1.10211 0.000424725 
83 5 42 45 1.53194 0.00112498 
84 6 42 43 1.10527 0.00624408 
85 6 42 44 1.10511 0.00577067 
86 2 6 5 1.50896 0.00800184 
87 3 6 22 1.21305 0.00719499 
88 2 6 7 1.51491 0.000258366 
89 5 39 42 1.53842 0.020958 
90 6 39 40 1.10556 0.00711789 
91 6 39 41 1.1041 0.00329681 
92 5 26 39 1.53885 0.0231516 
93 6 26 27 1.1032 0.00166118 
94 6 26 28 1.10407 0.00324202 
95 5 23 26 1.53541 0.00868296 
96 7 23 24 1.46273 0.0118662 
97 5 5 23 1.53095 0.00026835 
98 9 24 25 1.00787 0.00162206 
99 7 36 24 1.46153 0.00743075 
100 6 36 37 1.10483 0.00502311 
101 6 36 38 1.10377 0.00263687 
102 5 7 10 1.53682 0.0137649 
103 6 7 8 1.09947 0.000813634 
104 6 7 9 1.1058 0.00787802 
