ITEM: TIMESTEP
1000
ITEM: NUMBER OF ATOMS
103
ITEM: BOX BOUNDS pp pp pp
4.7741827395798424e+01 7.6277753204163773e+01
4.7741827395798424e+01 7.6277753204163773e+01
4.7741827395798424e+01 7.6277753204163773e+01
ITEM: ATOMS id type q xu yu zu mol c_newmol
14 4 -0.159 21.3046 91.5823 20.6016 2 1
15 5 0.053 21.8933 90.6658 20.797 2 1
13 5 0.053 19.4747 89.5495 20.2085 2 1
55473 5 0.053 82.0715 90.2005 32.4877 1682 2
29 6 -0.3964 18.4683 89.9538 18.0274 2 1
4 3 0.3964 18.505 90.8771 18.834 2 1
11 4 -0.106 18.9538 90.4368 20.2451 2 1
10 4 0 19.8045 91.4898 21.0531 2 1
12 5 0.053 18.0364 90.1795 20.805 2 1
55480 5 0.053 83.0257 89.8106 29.7611 1682 2
55485 5 0.053 83.1628 92.0164 31.1685 1682 2
55482 4 -0.159 84.0842 91.7463 31.6876 1682 2
19 5 0.053 20.1831 90.0437 22.6684 2 1
18 4 -0.159 19.8515 91.1077 22.5534 2 1
21 5 0.053 20.6042 91.751 23.047 2 1
20 5 0.053 18.9597 91.196 23.1919 2 1
55518 6 -0.3964 89.5437 82.4683 37.115 1682 2
55479 5 0.053 84.1722 88.525 30.4141 1682 2
55517 6 -0.3964 87.8573 84.9214 38.3113 1682 2
55513 3 0.3964 86.9283 84.1534 38.1689 1682 2
55469 5 0.053 84.8543 90.2655 35.5367 1682 2
55461 4 -0.106 85.1398 86.5788 36.8882 1682 2
55491 6 -0.3964 84.8358 87.3888 34.3264 1682 2
55472 5 0.053 82.8399 88.5576 32.5077 1682 2
55462 5 0.053 86.1491 86.4447 36.4808 1682 2
55487 3 0.3964 84.7065 88.3017 35.1237 1682 2
55470 3 0.3964 83.3235 89.9901 34.1556 1682 2
55468 9 -0.053 84.6242 89.6791 34.6808 1682 2
55488 4 -0.106 84.68 88.0385 36.6275 1682 2
55471 4 -0.106 83.0181 89.6504 32.7254 1682 2
55489 5 0.053 83.6354 88.3228 36.9509 1682 2
55486 6 -0.3964 82.5243 90.616 34.8285 1682 2
55490 5 0.053 85.3828 88.7672 37.0331 1682 2
55463 5 0.053 84.4766 85.9526 36.3309 1682 2
55464 4 -0.106 85.0771 86.0534 38.3266 1682 2
55515 5 0.053 85.1852 84.2438 39.4613 1682 2
55514 4 -0.106 85.4779 84.5474 38.4162 1682 2
55516 5 0.053 84.8924 83.9454 37.7107 1682 2
55465 5 0.053 84.0742 86.1777 38.6925 1682 2
55466 5 0.053 85.6728 86.7172 39.0295 1682 2
55492 6 -0.3964 86.6272 90.821 33.9955 1682 2
55481 5 0.053 84.8482 89.9031 29.5525 1682 2
55483 5 0.053 84.998 92.1135 31.2109 1682 2
55478 4 -0.159 84.0436 89.6364 30.287 1682 2
55476 5 0.053 86.3314 90.1559 31.708 1682 2
55475 4 -0.106 85.4925 89.7008 32.3007 1682 2
55477 5 0.053 85.7759 88.6203 32.3839 1682 2
55474 4 0 84.1573 90.2235 31.6892 1682 2
55467 3 0.3964 85.6834 90.0974 33.6967 1682 2
55484 5 0.053 84.1267 92.0785 32.7185 1682 2
55507 5 0.053 89.4744 81.5786 42.1443 1682 2
55502 5 0.053 90.0617 82.3511 39.5822 1682 2
55504 4 -0.159 88.54 81.1536 41.725 1682 2
55501 4 -0.106 89.1254 81.7785 39.3048 1682 2
55493 3 0.3964 88.6762 82.3246 37.9727 1682 2
55505 5 0.053 88.7001 80.0538 41.5459 1682 2
55503 5 0.053 89.423 80.7424 39.1812 1682 2
55498 5 0.053 86.9613 80.2184 39.5704 1682 2
55495 5 0.053 87.0626 82.6714 36.6205 1682 2
32 8 0.2487 15.731 94.5842 17.2548 2 1
30 7 -0.5801 15.3016 95.1187 16.5188 2 1
33 4 -0.0233 15.4041 94.383 15.2765 2 1
35 5 0.053 15.1852 95.0166 14.4156 2 1
34 5 0.053 14.6 93.6426 15.2869 2 1
55500 4 0 88.053 81.8619 40.3913 1682 2
31 8 0.2487 15.8147 95.953 16.4903 2 1
55506 5 0.053 87.7544 81.1989 42.5524 1682 2
55509 5 0.053 87.7309 84.1204 40.3022 1682 2
55508 4 -0.159 87.8104 83.2735 40.9957 1682 2
55510 5 0.053 86.9168 83.3002 41.6678 1682 2
55499 5 0.053 85.9648 81.3091 40.5408 1682 2
55497 4 -0.106 86.7744 81.2979 39.8369 1682 2
55494 9 -0.053 87.2112 82.7388 37.7327 1682 2
55496 3 0.3964 86.3051 81.8118 38.4595 1682 2
55512 6 -0.3964 85.3716 81.2747 37.9257 1682 2
46 5 0.053 21.5821 89.3836 15.9846 2 1
44 5 0.053 21.0423 90.4109 13.8447 2 1
48 5 0.053 23.0306 90.1182 15.3387 2 1
45 4 -0.159 22.0405 90.318 15.7081 2 1
47 5 0.053 22.2284 90.9524 16.5612 2 1
43 5 0.053 21.7434 91.9134 14.4169 2 1
40 5 0.053 19.3104 90.3513 15.674 2 1
42 4 -0.106 21.1654 91.0314 14.7016 2 1
17 5 0.053 21.3908 91.7347 19.558 2 1
6 3 0.3964 19.1935 93.1662 19.3635 2 1
39 4 -0.106 19.7121 91.2691 15.2275 2 1
26 4 -0.106 19.6483 92.4316 16.1713 2 1
23 4 0.0827 18.3785 92.6624 17.0547 2 1
5 4 0 18.2352 92.3268 18.573 2 1
27 5 0.053 20.5165 92.4071 16.8599 2 1
22 6 -0.3964 19.8222 94.059 18.839 2 1
24 7 -0.4141 17.0175 92.7693 16.3651 2 1
28 5 0.053 19.7269 93.3761 15.5348 2 1
41 5 0.053 18.9977 91.5157 14.3566 2 1
37 5 0.053 16.7665 93.0413 14.2475 2 1
16 5 0.053 21.8277 92.357 21.2175 2 1
36 4 -0.0233 16.7471 93.6494 15.2032 2 1
25 8 0.2487 16.7202 91.8414 16.1591 2 1
7 4 -0.106 19.2693 92.9299 20.871 2 1
38 5 0.053 17.4076 94.5588 15.0238 2 1
55511 5 0.053 88.7526 83.5093 41.5779 1682 2
9 5 0.053 18.2202 92.8756 21.2815 2 1
8 5 0.053 19.9002 93.6918 21.2677 2 1
