ITEM: TIMESTEP
1000
ITEM: NUMBER OF ENTRIES
104
ITEM: BOX BOUNDS pp pp pp
4.7741827395798424e+01 7.6277753204163773e+01
4.7741827395798424e+01 7.6277753204163773e+01
4.7741827395798424e+01 7.6277753204163773e+01
ITEM: ENTRIES index c2_pl[1] c2_pl[2] c2_pl[3] c2_bl[1] c2_bl[2] 
1 6 14 15 1.10661 0.0107507 
2 6 14 16 1.11942 0.112876 
3 6 14 17 1.05823 0.687962 
4 2 4 11 1.54474 0.282127 
5 3 4 29 1.22657 0.0897858 
6 2 4 5 1.49752 0.0869262 
7 6 11 12 1.1051 0.00576589 
8 6 11 13 1.02955 2.03579 
9 5 10 18 1.54892 0.103983 
10 5 10 11 1.57651 0.600981 
11 5 10 14 1.56937 0.435427 
12 6 55482 55483 1.09415 0.0164191 
13 6 55482 55484 1.08397 0.103573 
14 6 55482 55485 1.09151 0.0316697 
15 6 18 19 1.1204 0.124951 
16 6 18 20 1.10035 0.000145809 
17 6 18 21 1.10631 0.00960805 
18 4 55513 55494 1.50711 0.0149889 
19 3 55513 55517 1.21368 0.00444527 
20 2 55513 55514 1.52324 0.0263279 
21 8 55469 55468 1.06266 0.548098 
22 5 55461 55488 1.55248 0.14596 
23 5 55461 55464 1.53264 0.00207955 
24 6 55461 55462 1.09657 0.0068407 
25 6 55461 55463 1.0689 0.379348 
26 4 55487 55468 1.44923 1.44535 
27 3 55487 55491 1.21888 0.00680414 
28 2 55487 55488 1.52689 0.0509514 
29 4 55470 55468 1.43673 2.0968 
30 3 55470 55486 1.21792 0.00301424 
31 2 55470 55471 1.50142 0.0503415 
32 6 55488 55489 1.12988 0.271641 
33 6 55488 55490 1.09055 0.03844 
34 5 55471 55474 1.64311 3.21899 
35 6 55471 55472 1.1285 0.246971 
36 6 55471 55473 1.12032 0.123962 
37 5 55464 55514 1.56098 0.273244 
38 6 55464 55465 1.07484 0.248802 
39 6 55464 55466 1.13558 0.385095 
40 6 55514 55515 1.12695 0.220674 
41 6 55514 55516 1.09675 0.00629826 
42 6 55478 55479 1.12603 0.20558 
43 6 55478 55480 1.15888 1.0312 
44 6 55478 55481 1.12158 0.140281 
45 6 55475 55476 1.12349 0.166883 
46 6 55475 55477 1.12011 0.121232 
47 5 55474 55482 1.52455 0.00896976 
48 5 55474 55475 1.55885 0.237825 
49 5 55474 55478 1.52434 0.00968188 
50 2 55467 55475 1.46372 0.8518 
51 3 55467 55492 1.2262 0.0836815 
52 4 55467 55468 1.50509 0.0251284 
53 6 55504 55505 1.12568 0.200112 
54 6 55504 55506 1.1418 0.529633 
55 6 55504 55507 1.10893 0.0213553 
56 6 55501 55502 1.13207 0.313021 
57 6 55501 55503 1.08497 0.0915055 
58 2 55493 55501 1.50814 0.0108223 
59 3 55493 55518 1.22832 0.121578 
60 4 55493 55494 1.54129 0.223447 
61 8 55495 55494 1.12408 0.175494 
62 9 30 31 0.979879 0.33817 
63 9 30 32 1.00587 7.60021e-06 
64 7 33 30 1.44738 0.0344997 
65 5 33 36 1.53208 0.00129405 
66 6 33 34 1.09314 0.0216279 
67 6 33 35 1.09108 0.0346162 
68 5 55500 55508 1.55458 0.173823 
69 5 55500 55501 1.52886 0.000388104 
70 5 55500 55504 1.58672 0.879503 
71 6 55508 55509 1.0976 0.00402045 
72 6 55508 55510 1.11845 0.101403 
73 6 55508 55511 1.13241 0.319666 
74 5 55497 55500 1.50344 0.221097 
75 6 55497 55498 1.12757 0.231038 
76 6 55497 55499 1.07284 0.289646 
77 4 55496 55494 1.48612 0.253252 
78 3 55496 55512 1.20204 0.165807 
79 2 55496 55497 1.54322 0.255464 
80 6 45 46 1.07688 0.210778 
81 6 45 47 1.07964 0.164293 
82 6 45 48 1.07539 0.238208 
83 5 42 45 1.51257 0.0938076 
84 6 42 43 1.09228 0.0267209 
85 6 42 44 1.06515 0.476734 
86 2 6 5 1.49928 0.0691744 
87 3 6 22 1.21137 0.0178463 
88 2 6 7 1.52785 0.058723 
89 5 39 42 1.56373 0.322621 
90 6 39 40 1.09684 0.00603354 
91 6 39 41 1.15316 0.846709 
92 5 26 39 1.49869 0.309838 
93 6 26 27 1.10838 0.018505 
94 6 26 28 1.14168 0.526638 
95 5 23 26 1.56399 0.327342 
96 7 23 24 1.52951 1.68432 
97 5 5 23 1.56157 0.283557 
98 9 24 25 0.995845 0.0492737 
99 7 36 24 1.48242 0.22525 
100 6 36 37 1.13301 0.331731 
101 6 36 38 1.13814 0.442141 
102 5 7 10 1.54709 0.0850308 
103 6 7 8 1.06579 0.459329 
104 6 7 9 1.12777 0.234388 
