ITEM: TIMESTEP
0
ITEM: NUMBER OF ATOMS
103
ITEM: BOX BOUNDS pp pp pp
4.8093292031640807e+01 7.5926288568320928e+01
4.8093292031640807e+01 7.5926288568320928e+01
4.8093292031640807e+01 7.5926288568320928e+01
ITEM: ATOMS id type q xu yu zu mol c_newmol
14 4 -0.159 21.5433 90.7733 20.6344 2 1
15 5 0.053 21.9256 91.1894 21.5822 2 1
13 5 0.053 22.3584 88.7892 22.3532 2 1
55473 5 0.053 84.7268 86.3676 29.011 1682 2
29 6 -0.3964 24.1539 88.2111 20.7362 2 1
4 3 0.3964 22.9828 88.0902 20.4407 2 1
11 4 -0.106 21.8864 88.4127 21.4343 2 1
10 4 0 20.8685 89.4068 20.8538 2 1
12 5 0.053 21.3872 87.4584 21.6854 2 1
55480 5 0.053 87.2756 85.7068 28.9226 1682 2
55485 5 0.053 86.5192 88.0884 28.3953 1682 2
55482 4 -0.159 86.6046 88.326 29.4695 1682 2
19 5 0.053 20.0463 89.9768 22.8073 2 1
18 4 -0.159 19.6989 89.5879 21.835 2 1
21 5 0.053 18.9519 90.2995 21.4438 2 1
20 5 0.053 19.1756 88.6366 22.0297 2 1
55518 6 -0.3964 82.7949 83.8732 37.8788 1682 2
55479 5 0.053 87.1924 85.0807 30.584 1682 2
55517 6 -0.3964 82.2986 87.1037 38.0594 1682 2
55513 3 0.3964 81.3867 86.3045 38.0004 1682 2
55469 5 0.053 83.3976 89.0795 31.938 1682 2
55461 4 -0.106 81.8512 86.7168 34.8855 1682 2
55491 6 -0.3964 83.8842 86.0768 33.0223 1682 2
55472 5 0.053 84.7322 85.6246 30.6196 1682 2
55462 5 0.053 82.7238 86.561 35.5451 1682 2
55487 3 0.3964 83.4063 87.1879 32.9181 1682 2
55470 3 0.3964 83.847 87.5568 30.5343 1682 2
55468 9 -0.053 83.9658 88.1434 31.9113 1682 2
55488 4 -0.106 82.2427 87.6746 33.7619 1682 2
55471 4 -0.106 84.9039 86.5726 30.0768 1682 2
55489 5 0.053 81.3921 87.8506 33.0779 1682 2
55486 6 -0.3964 82.9218 87.8677 29.812 1682 2
55490 5 0.053 82.5141 88.6648 34.1721 1682 2
55463 5 0.053 81.6028 85.726 34.4648 1682 2
55464 4 -0.106 80.6607 87.2233 35.7134 1682 2
55515 5 0.053 79.3923 86.7012 37.4125 1682 2
55514 4 -0.106 80.3169 86.3434 36.923 1682 2
55516 5 0.053 80.1067 85.307 36.6022 1682 2
55465 5 0.053 79.7714 87.289 35.0622 1682 2
55466 5 0.053 80.8633 88.2531 36.06 1682 2
55492 6 -0.3964 85.6813 89.4618 32.8562 1682 2
55481 5 0.053 88.3816 86.3336 30.166 1682 2
55483 5 0.053 87.6231 88.7155 29.6389 1682 2
55478 4 -0.159 87.3474 85.9944 29.9853 1682 2
55476 5 0.053 87.4389 87.9027 32.0586 1682 2
55475 4 -0.106 86.4601 87.4588 31.8262 1682 2
55477 5 0.053 86.3556 86.5572 32.4579 1682 2
55474 4 0 86.3269 87.0879 30.3415 1682 2
55467 3 0.3964 85.3952 88.447 32.2544 1682 2
55484 5 0.053 85.9019 89.1502 29.6776 1682 2
55507 5 0.053 84.9921 84.1356 42.3625 1682 2
55502 5 0.053 84.255 83.6383 39.8656 1682 2
55504 4 -0.159 83.9642 84.4924 42.5464 1682 2
55501 4 -0.106 83.2608 83.9744 40.1967 1682 2
55493 3 0.3964 82.4853 84.3485 38.9533 1682 2
55505 5 0.053 83.388 83.6394 42.9432 1682 2
55503 5 0.053 82.7517 83.0794 40.5993 1682 2
55498 5 0.053 81.3404 84.7322 42.0785 1682 2
55495 5 0.053 80.3816 84.6215 38.8596 1682 2
32 8 0.2487 21.4743 84.1819 16.8196 2 1
30 7 -0.5801 21.3533 84.3388 15.8311 2 1
33 4 -0.0233 22.5613 84.9399 15.2717 2 1
35 5 0.053 22.392 85.1252 14.1977 2 1
34 5 0.053 23.3774 84.1985 15.3225 2 1
55500 4 0 83.3322 85.0685 41.2669 1682 2
31 8 0.2487 20.5728 84.9678 15.7257 2 1
55506 5 0.053 84.0178 85.2518 43.3453 1682 2
55509 5 0.053 83.8254 86.7208 39.8826 1682 2
55508 4 -0.159 84.2049 86.2422 40.7965 1682 2
55510 5 0.053 84.2667 87.0274 41.5696 1682 2
55499 5 0.053 81.8888 86.396 42.2683 1682 2
55497 4 -0.106 81.9084 85.5385 41.5801 1682 2
55494 9 -0.053 81.2699 85.2423 39.0507 1682 2
55496 3 0.3964 81.0704 85.9254 40.3829 1682 2
55512 6 -0.3964 80.1777 86.7403 40.5109 1682 2
46 5 0.053 27.5686 89.9983 18.3729 2 1
44 5 0.053 27.8712 88.4718 16.3662 2 1
48 5 0.053 27.8115 90.8951 16.8545 2 1
45 4 -0.159 27.1249 90.2181 17.3882 2 1
47 5 0.053 26.1839 90.7658 17.556 2 1
43 5 0.053 26.4442 89.1852 15.6113 2 1
40 5 0.053 26.4664 87.6233 18.2679 2 1
42 4 -0.106 26.8915 88.9317 16.5897 2 1
17 5 0.053 22.3972 90.7106 19.9387 2 1
6 3 0.3964 21.4928 88.5614 18.5669 2 1
39 4 -0.106 26.0055 87.8939 17.3001 2 1
26 4 -0.106 24.5563 88.348 17.5488 2 1
23 4 0.0827 23.6722 87.2415 18.1416 2 1
5 4 0 22.5252 87.5944 19.0922 2 1
27 5 0.053 24.5669 89.1904 18.2611 2 1
22 6 -0.3964 21.551 89.0788 17.4712 2 1
24 7 -0.4141 23.3447 86.06 17.3439 2 1
28 5 0.053 24.1202 88.7434 16.6148 2 1
41 5 0.053 25.9988 86.9679 16.6989 2 1
37 5 0.053 23.8429 86.6738 15.3447 2 1
16 5 0.053 20.8353 91.5085 20.2153 2 1
36 4 -0.0233 23.0097 86.2507 15.9341 2 1
25 8 0.2487 24.0711 85.3682 17.442 2 1
7 4 -0.106 20.3491 88.8632 19.5134 2 1
38 5 0.053 22.1855 86.9819 15.8673 2 1
55511 5 0.053 85.2359 85.912 40.5824 1682 2
9 5 0.053 19.7932 87.9207 19.6728 2 1
8 5 0.053 19.67 89.5698 19.0151 2 1
