ITEM: TIMESTEP
0
ITEM: NUMBER OF ENTRIES
42
ITEM: BOX BOUNDS pp pp pp
-25 25
-25 25
-25 25
ITEM: ENTRIES index c_1[1] c_1[2] c_1[3] c_2[1] c_2[2] 
1 10 24 33 1.02482 0.158356 
2 10 24 34 1.01407 0.0298494 
3 7 21 22 1.53167 0.000836934 
4 8 21 27 1.15464 0.892763 
5 8 21 28 1.03241 1.86499 
6 7 21 39 1.53774 0.0177389 
7 9 25 24 1.39447 1.61651 
8 7 25 26 1.54466 0.0628763 
9 8 25 35 1.15121 0.78762 
10 8 25 36 1.10832 0.0182308 
11 8 26 37 1.12281 0.157053 
12 8 26 38 1.08815 0.058436 
13 7 26 42 1.50791 0.151846 
14 8 39 40 1.16453 1.22896 
15 8 39 41 1.09745 0.0043731 
16 7 39 42 1.53916 0.024781 
17 8 42 43 1.09081 0.036581 
18 8 42 44 1.08835 0.0566431 
19 1 1 5 1.12197 0.14548 
20 1 1 4 1.05974 0.638392 
21 2 1 7 1.5818 0.739314 
22 2 1 8 1.52407 0.0106556 
23 4 7 2 1.52111 0.000211506 
24 1 7 14 1.09812 0.00287611 
25 1 7 15 1.13225 0.316555 
26 2 8 9 1.54305 0.049947 
27 1 8 16 1.08405 0.10255 
28 1 8 17 1.14925 0.730003 
29 4 9 10 1.48139 0.407779 
30 1 9 18 1.10394 0.00297035 
31 1 9 19 1.09142 0.0323077 
32 5 10 12 1.21544 0.149187 
33 3 10 13 1.38054 0.0870804 
34 3 2 3 1.33739 0.297178 
35 5 2 11 1.22412 0.39623 
36 6 3 6 0.962781 0.00263575 
37 9 22 23 1.56294 3.39959 
38 8 22 29 1.06863 0.385938 
39 8 22 30 1.06257 0.550723 
40 10 23 31 1.05988 1.19768 
41 10 23 32 0.997307 0.0359847 
42 6 13 20 0.958542 0.022555 
ITEM: TIMESTEP
1
ITEM: NUMBER OF ENTRIES
43
ITEM: BOX BOUNDS pp pp pp
-25 25
-25 25
-25 25
ITEM: ENTRIES index c_1[1] c_1[2] c_1[3] c_2[1] c_2[2] 
1 10 24 33 1.01686 0.0536918 
2 10 24 34 1.02295 0.128993 
3 7 21 22 1.53941 0.0261046 
4 8 21 27 1.15178 0.804527 
5 8 21 28 1.06181 0.573535 
6 7 21 39 1.53033 3.21299e-05 
7 9 25 24 1.39522 1.57597 
8 7 25 26 1.53468 0.00651648 
9 8 25 35 1.1523 0.820356 
10 8 25 36 1.10415 0.00341108 
11 8 26 37 1.11624 0.0777167 
12 8 26 38 1.08861 0.0542946 
13 7 26 42 1.51699 0.0518431 
14 8 39 40 1.16128 1.11305 
15 8 39 41 1.10223 0.000523165 
16 7 39 42 1.54632 0.0776817 
17 8 42 43 1.09622 0.00795746 
18 8 42 44 1.1032 0.00166844 
19 1 1 5 1.1351 0.374967 
20 1 1 4 1.06935 0.368334 
21 2 1 7 1.58825 0.925349 
22 2 1 8 1.5169 0.0525871 
23 4 7 2 1.53326 0.0423339 
24 1 7 14 1.07438 0.25793 
25 1 7 15 1.11988 0.118374 
26 2 8 9 1.54487 0.0646848 
27 1 8 16 1.07309 0.284228 
28 1 8 17 1.15192 0.808877 
29 4 9 10 1.48357 0.361925 
30 1 9 18 1.12066 0.128232 
31 1 9 19 1.07957 0.165393 
32 5 10 12 1.21304 0.101105 
33 3 10 13 1.38024 0.0838331 
34 3 2 3 1.33323 0.397672 
35 5 2 11 1.22832 0.555546 
36 6 3 6 0.965084 3.74896e-06 
37 1 22 29 1.08567 0.0835622 
38 1 22 30 1.06654 0.439313 
39 11 23 22 1.55006 2.67812 
40 12 23 31 1.07686 1.78454 
41 12 23 32 0.998821 0.0593252 
42 13 23 10 2.22738 434.98 
43 6 13 20 0.940967 0.326047 
ITEM: TIMESTEP
2
ITEM: NUMBER OF ENTRIES
43
ITEM: BOX BOUNDS pp pp pp
-25 25
-25 25
-25 25
ITEM: ENTRIES index c_1[1] c_1[2] c_1[3] c_2[1] c_2[2] 
1 10 24 33 1.00295 0.00436386 
2 10 24 34 1.02548 0.169344 
3 7 21 22 1.54699 0.0840917 
4 8 21 27 1.13901 0.462176 
5 8 21 28 1.09234 0.0263181 
6 7 21 39 1.52331 0.0135826 
7 9 25 24 1.40006 1.32582 
8 7 25 26 1.52465 0.00866607 
9 8 25 35 1.14078 0.504398 
10 8 25 36 1.10056 6.64275e-05 
11 8 26 37 1.10756 0.0146391 
12 8 26 38 1.09414 0.0164787 
13 7 26 42 1.52787 0.00135806 
14 8 39 40 1.14502 0.612601 
15 8 39 41 1.10717 0.0129654 
16 7 39 42 1.55274 0.149198 
17 8 42 43 1.10454 0.00428875 
18 8 42 44 1.1174 0.0898185 
19 1 1 5 1.14032 0.493445 
20 1 1 4 1.08904 0.0505495 
21 2 1 7 1.59186 1.03803 
22 2 1 8 1.51137 0.107288 
23 4 7 2 1.54544 0.155004 
24 1 7 14 1.06157 0.580888 
25 1 7 15 1.10197 0.000327167 
26 2 8 9 1.54591 0.0738866 
27 1 8 16 1.07223 0.30255 
28 1 8 17 1.14085 0.506277 
29 4 9 10 1.51494 0.0070837 
30 1 9 18 1.13213 0.314307 
31 1 9 19 1.0742 0.261524 
32 5 10 12 1.19517 0.040282 
33 3 10 13 1.36533 6.74783e-05 
34 3 2 3 1.33079 0.463804 
35 5 2 11 1.23044 0.64562 
36 6 3 6 0.967859 0.00432174 
37 1 22 29 1.10665 0.010876 
38 1 22 30 1.08035 0.153396 
39 11 23 22 1.56331 3.37855 
40 12 23 31 1.0793 1.90718 
41 12 23 32 1.01706 0.0226802 
42 13 23 10 2.16744 331.353 
43 6 13 20 0.935868 0.485069 
ITEM: TIMESTEP
3
ITEM: NUMBER OF ENTRIES
43
ITEM: BOX BOUNDS pp pp pp
-25 25
-25 25
-25 25
ITEM: ENTRIES index c_1[1] c_1[2] c_1[3] c_2[1] c_2[2] 
1 10 24 33 0.988421 0.150183 
2 10 24 34 1.02046 0.0944338 
3 7 21 22 1.5544 0.171429 
4 8 21 27 1.12049 0.126077 
5 8 21 28 1.12113 0.134264 
6 7 21 39 1.51735 0.0489621 
7 9 25 24 1.40824 0.956496 
8 7 25 26 1.51504 0.0688216 
9 8 25 35 1.1206 0.127387 
10 8 25 36 1.09874 0.00176485 
11 8 26 37 1.099 0.00138304 
12 8 26 38 1.10282 0.00114148 
13 7 26 42 1.54003 0.0296628 
14 8 39 40 1.12162 0.140816 
15 8 39 41 1.1105 0.0305709 
16 7 39 42 1.55829 0.228938 
17 8 42 43 1.11343 0.0519989 
18 8 42 44 1.12692 0.220198 
19 1 1 5 1.13627 0.400121 
20 1 1 4 1.11068 0.0317378 
21 2 1 7 1.59236 1.05408 
22 2 1 8 1.50805 0.149828 
23 4 7 2 1.55681 0.320039 
24 1 7 14 1.06434 0.499286 
25 1 7 15 1.08356 0.108733 
26 2 8 9 1.54641 0.0785042 
27 1 8 16 1.08162 0.134701 
28 1 8 17 1.1199 0.118731 
29 4 9 10 1.54724 0.177288 
30 1 9 18 1.13546 0.382626 
31 1 9 19 1.07741 0.201388 
32 5 10 12 1.17803 0.516327 
33 3 10 13 1.35023 0.0820276 
34 3 2 3 1.33049 0.472312 
35 5 2 11 1.23028 0.638611 
36 6 3 6 0.969915 0.0127149 
37 1 22 29 1.12476 0.185759 
38 1 22 30 1.09874 0.0017756 
39 11 23 22 1.57601 4.11109 
40 12 23 31 1.06837 1.38504 
41 12 23 32 1.036 0.294909 
42 13 23 10 2.10754 249.247 
43 6 13 20 0.946311 0.194618 
ITEM: TIMESTEP
4
ITEM: NUMBER OF ENTRIES
43
ITEM: BOX BOUNDS pp pp pp
-25 25
-25 25
-25 25
ITEM: ENTRIES index c_1[1] c_1[2] c_1[3] c_2[1] c_2[2] 
1 10 24 33 0.979499 0.348379 
2 10 24 34 1.00942 0.00542362 
3 7 21 22 1.56157 0.283543 
4 8 21 27 1.09996 0.000373512 
5 8 21 28 1.14436 0.595155 
6 7 21 39 1.51293 0.0898829 
7 9 25 24 1.41868 0.578545 
8 7 25 26 1.50633 0.174724 
9 8 25 35 1.09784 0.00345684 
10 8 25 36 1.09929 0.00101072 
11 8 26 37 1.0927 0.0241489 
12 8 26 38 1.11181 0.0394262 
13 7 26 42 1.55285 0.150686 
14 8 39 40 1.09628 0.00776891 
15 8 39 41 1.1111 0.0344699 
16 7 39 42 1.56291 0.307388 
17 8 42 43 1.1204 0.124877 
18 8 42 44 1.12938 0.262682 
19 1 1 5 1.12386 0.172238 
20 1 1 4 1.12976 0.269538 
21 2 1 7 1.5897 0.969889 
22 2 1 8 1.50731 0.160365 
23 4 7 2 1.5667 0.507798 
24 1 7 14 1.08127 0.139726 
25 1 7 15 1.07063 0.33839 
26 2 8 9 1.5467 0.081257 
27 1 8 16 1.09774 0.00369376 
28 1 8 17 1.09873 0.00179193 
29 4 9 10 1.58007 0.823798 
30 1 9 18 1.12994 0.27278 
31 1 9 19 1.08826 0.0574818 
32 5 10 12 1.1629 1.42058 
33 3 10 13 1.33547 0.341516 
34 3 2 3 1.33255 0.415594 
35 5 2 11 1.22783 0.535883 
36 6 3 6 0.970432 0.0155087 
37 1 22 29 1.13482 0.369047 
38 1 22 30 1.11831 0.0998956 
39 11 23 22 1.58785 4.84338 
40 12 23 31 1.05031 0.686957 
41 12 23 32 1.05051 0.693516 
42 13 23 10 2.0477 185.091 
43 6 13 20 0.966621 0.00139386 
ITEM: TIMESTEP
5
ITEM: NUMBER OF ENTRIES
43
ITEM: BOX BOUNDS pp pp pp
-25 25
-25 25
-25 25
ITEM: ENTRIES index c_1[1] c_1[2] c_1[3] c_2[1] c_2[2] 
1 10 24 33 0.98031 0.326797 
2 10 24 34 0.996357 0.0443728 
3 7 21 22 1.56833 0.413407 
4 8 21 27 1.08112 0.141955 
5 8 21 28 1.15632 0.946736 
6 7 21 39 1.51024 0.121021 
7 9 25 24 1.43023 0.275977 
8 7 25 26 1.499 0.303594 
9 8 25 35 1.07676 0.212906 
10 8 25 36 1.10192 0.00029013 
11 8 26 37 1.09038 0.0397545 
12 8 26 38 1.11831 0.0999115 
13 7 26 42 1.56566 0.359385 
14 8 39 40 1.07335 0.278957 
15 8 39 41 1.10877 0.0204989 
16 7 39 42 1.56652 0.376479 
17 8 42 43 1.12346 0.166383 
18 8 42 44 1.12437 0.179791 
19 1 1 5 1.10619 0.00921165 
20 1 1 4 1.141 0.509819 
21 2 1 7 1.5841 0.803373 
22 2 1 8 1.50926 0.133443 
23 4 7 2 1.57464 0.687055 
24 1 7 14 1.10576 0.00773702 
25 1 7 15 1.06806 0.400154 
26 2 8 9 1.54712 0.0853791 
27 1 8 16 1.1151 0.0667193 
28 1 8 17 1.08097 0.144086 
29 4 9 10 1.61312 1.88085 
30 1 9 18 1.1171 0.0865779 
31 1 9 19 1.10323 0.00171205 
32 5 10 12 1.15125 2.45726 
33 3 10 13 1.32157 0.76435 
34 3 2 3 1.33695 0.306956 
35 5 2 11 1.22331 0.368289 
36 6 3 6 0.969308 0.00977969 
37 1 22 29 1.1342 0.355899 
38 1 22 30 1.13434 0.35885 
39 11 23 22 1.5988 5.56186 
40 12 23 31 1.02929 0.164903 
41 12 23 32 1.05653 0.902907 
42 13 23 10 1.98793 135.659 
43 6 13 20 0.986756 0.239294 
ITEM: TIMESTEP
6
ITEM: NUMBER OF ENTRIES
43
ITEM: BOX BOUNDS pp pp pp
-25 25
-25 25
-25 25
ITEM: ENTRIES index c_1[1] c_1[2] c_1[3] c_2[1] c_2[2] 
1 10 24 33 0.990372 0.11817 
2 10 24 34 0.986638 0.182937 
3 7 21 22 1.57446 0.550799 
4 8 21 27 1.07028 0.34647 
5 8 21 28 1.15459 0.89142 
6 7 21 39 1.50925 0.133661 
7 9 25 24 1.44189 0.0859895 
8 7 25 26 1.49344 0.426216 
9 8 25 35 1.06419 0.503387 
10 8 25 36 1.10554 0.00703417 
11 8 26 37 1.09266 0.0244265 
12 8 26 38 1.12046 0.125658 
13 7 26 42 1.57775 0.632103 
14 8 39 40 1.06054 0.612919 
15 8 39 41 1.10444 0.00405352 
16 7 39 42 1.56911 0.429885 
17 8 42 43 1.12163 0.140855 
18 8 42 44 1.11343 0.0519714 
19 1 1 5 1.08814 0.058539 
20 1 1 4 1.14169 0.526896 
21 2 1 7 1.57603 0.588961 
22 2 1 8 1.51375 0.0813544 
23 4 7 2 1.5804 0.832243 
24 1 7 14 1.12957 0.266085 
25 1 7 15 1.07718 0.205322 
26 2 8 9 1.54794 0.0935716 
27 1 8 16 1.12844 0.245993 
28 1 8 17 1.07119 0.325584 
29 4 9 10 1.64604 3.27417 
30 1 9 18 1.10052 7.8209e-05 
31 1 9 19 1.11773 0.0934014 
32 5 10 12 1.14437 3.21746 
33 3 10 13 1.30907 1.30645 
34 3 2 3 1.34349 0.177479 
35 5 2 11 1.21711 0.187776 
36 6 3 6 0.967194 0.00255043 
37 1 22 29 1.12303 0.160228 
38 1 22 30 1.14262 0.550234 
39 11 23 22 1.60886 6.25439 
40 12 23 31 1.00764 0.00259345 
41 12 23 32 1.05402 0.812772 
42 13 23 10 1.92823 98.0966 
43 6 13 20 0.998109 0.539578 
ITEM: TIMESTEP
7
ITEM: NUMBER OF ENTRIES
43
ITEM: BOX BOUNDS pp pp pp
-25 25
-25 25
-25 25
ITEM: ENTRIES index c_1[1] c_1[2] c_1[3] c_2[1] c_2[2] 
1 10 24 33 1.00498 0.000487878 
2 10 24 34 0.984747 0.221391 
3 7 21 22 1.57971 0.682992 
4 8 21 27 1.07139 0.321011 
5 8 21 28 1.14173 0.527877 
6 7 21 39 1.50986 0.12582 
7 9 25 24 1.45295 0.00604007 
8 7 25 26 1.49004 0.512224 
9 8 25 35 1.06451 0.494503 
10 8 25 36 1.10871 0.0201812 
11 8 26 37 1.09851 0.00214568 
12 8 26 38 1.11768 0.0928506 
13 7 26 42 1.58843 0.930893 
14 8 39 40 1.06257 0.550753 
15 8 39 41 1.09959 0.000689302 
16 7 39 42 1.57068 0.463999 
17 8 42 43 1.11516 0.0672006 
18 8 42 44 1.0998 0.000497808 
19 1 1 5 1.07522 0.241487 
20 1 1 4 1.1319 0.309763 
21 2 1 7 1.56614 0.368796 
22 2 1 8 1.52034 0.0284153 
23 4 7 2 1.5839 0.92673 
24 1 7 14 1.14595 0.637757 
25 1 7 15 1.09501 0.012531 
26 2 8 9 1.54928 0.10788 
27 1 8 16 1.13415 0.354893 
28 1 8 17 1.07266 0.293312 
29 4 9 10 1.67845 4.92588 
30 1 9 18 1.08524 0.0884641 
31 1 9 19 1.1276 0.231507 
32 5 10 12 1.14321 3.35702 
33 3 10 13 1.29849 1.89489 
34 3 2 3 1.35175 0.0657209 
35 5 2 11 1.20983 0.0512154 
36 6 3 6 0.9652 2.12439e-05 
37 1 22 29 1.10427 0.00365433 
38 1 22 30 1.14188 0.531531 
39 11 23 22 1.61792 6.90294 
40 12 23 31 0.99164 0.162682 
41 12 23 32 1.04641 0.565249 
42 13 23 10 1.86863 69.9097 
43 6 13 20 0.996404 0.487369 
ITEM: TIMESTEP
8
ITEM: NUMBER OF ENTRIES
43
ITEM: BOX BOUNDS pp pp pp
-25 25
-25 25
-25 25
ITEM: ENTRIES index c_1[1] c_1[2] c_1[3] c_2[1] c_2[2] 
1 10 24 33 1.01806 0.066026 
2 10 24 34 0.991789 0.0973912 
3 7 21 22 1.58386 0.79657 
4 8 21 27 1.08402 0.102892 
5 8 21 28 1.1224 0.151416 
6 7 21 39 1.51203 0.0997321 
7 9 25 24 1.46305 0.0132504 
8 7 25 26 1.48914 0.536484 
9 8 25 35 1.07725 0.204188 
10 8 25 36 1.11023 0.0288814 
11 8 26 37 1.10572 0.00759992 
12 8 26 38 1.11085 0.0328049 
13 7 26 42 1.59707 1.21045 
14 8 39 40 1.0785 0.182735 
15 8 39 41 1.09579 0.009458 
16 7 39 42 1.57133 0.47845 
17 8 42 43 1.10557 0.00715303 
18 8 42 44 1.08771 0.062608 
19 1 1 5 1.07171 0.314072 
20 1 1 4 1.11438 0.0601262 
21 2 1 7 1.55519 0.182401 
22 2 1 8 1.5285 0.000675478 
23 4 7 2 1.58519 0.962464 
24 1 7 14 1.15091 0.778652 
25 1 7 15 1.11573 0.0726436 
26 2 8 9 1.55122 0.130235 
27 1 8 16 1.13089 0.290332 
28 1 8 17 1.08386 0.104901 
29 4 9 10 1.70995 6.75893 
30 1 9 18 1.07633 0.220711 
31 1 9 19 1.13013 0.276239 
32 5 10 12 1.14809 2.79297 
33 3 10 13 1.29037 2.43239 
34 3 2 3 1.36119 0.00511884 
35 5 2 11 1.20219 2.92904e-05 
36 6 3 6 0.964373 0.00020948 
37 1 22 29 1.08334 0.111546 
38 1 22 30 1.1353 0.379089 
39 11 23 22 1.62577 7.48389 
40 12 23 31 0.987414 0.248614 
41 12 23 32 1.03719 0.321726 
42 13 23 10 1.80917 48.9701 
43 6 13 20 0.982404 0.154715 
ITEM: TIMESTEP
9
ITEM: NUMBER OF ENTRIES
43
ITEM: BOX BOUNDS pp pp pp
-25 25
-25 25
-25 25
ITEM: ENTRIES index c_1[1] c_1[2] c_1[3] c_2[1] c_2[2] 
1 10 24 33 1.025 0.161321 
2 10 24 34 1.00479 0.000679974 
3 7 21 22 1.58673 0.87978 
4 8 21 27 1.10354 0.00221453 
5 8 21 28 1.10056 6.73475e-05 
6 7 21 39 1.51583 0.0616126 
7 9 25 24 1.47206 0.0806243 
8 7 25 26 1.491 0.48724 
9 8 25 35 1.09742 0.00446575 
10 8 25 36 1.10959 0.025043 
11 8 26 37 1.11168 0.0385075 
12 8 26 38 1.10205 0.000377536 
13 7 26 42 1.60315 1.42652 
14 8 39 40 1.10234 0.000618898 
15 8 39 41 1.09444 0.0150522 
16 7 39 42 1.5712 0.475541 
17 8 42 43 1.09546 0.0107149 
18 8 42 44 1.08114 0.141557 
19 1 1 5 1.07869 0.179692 
20 1 1 4 1.09537 0.0110716 
21 2 1 7 1.54399 0.0572942 
22 2 1 8 1.53761 0.017138 
23 4 7 2 1.58431 0.937891 
24 1 7 14 1.14343 0.571061 
25 1 7 15 1.13317 0.334847 
26 2 8 9 1.55379 0.163005 
27 1 8 16 1.11966 0.115735 
28 1 8 17 1.10054 7.42397e-05 
29 4 9 10 1.74014 8.70076 
30 1 9 18 1.07696 0.209222 
31 1 9 19 1.12453 0.18224 
32 5 10 12 1.15724 1.88592 
33 3 10 13 1.28532 2.80578 
34 3 2 3 1.37121 0.0144944 
35 5 2 11 1.19498 0.0425709 
36 6 3 6 0.965193 1.97997e-05 
37 1 22 29 1.06711 0.424372 
38 1 22 30 1.1265 0.213295 
39 11 23 22 1.63221 7.97397 
40 12 23 31 0.996028 0.0932719 
41 12 23 32 1.02894 0.15896 
42 13 23 10 1.74997 33.5183 
43 6 13 20 0.961824 0.00541179 
ITEM: TIMESTEP
10
ITEM: NUMBER OF ENTRIES
43
ITEM: BOX BOUNDS pp pp pp
-25 25
-25 25
-25 25
ITEM: ENTRIES index c_1[1] c_1[2] c_1[3] c_2[1] c_2[2] 
1 10 24 33 1.02401 0.145259 
2 10 24 34 1.01846 0.0704074 
3 7 21 22 1.58821 0.92439 
4 8 21 27 1.12342 0.165805 
5 8 21 28 1.0797 0.163325 
6 7 21 39 1.52127 0.0231983 
7 9 25 24 1.47994 0.184378 
8 7 25 26 1.49572 0.373382 
9 8 25 35 1.11808 0.0972387 
10 8 25 36 1.10706 0.0125185 
11 8 26 37 1.11433 0.0596843 
12 8 26 38 1.09406 0.0168337 
13 7 26 42 1.6063 1.54479 
14 8 39 40 1.12621 0.208462 
15 8 39 41 1.09628 0.00776661 
16 7 39 42 1.57048 0.459534 
17 8 42 43 1.08785 0.0613002 
18 8 42 44 1.08239 0.124019 
19 1 1 5 1.09354 0.0194868 
20 1 1 4 1.07985 0.16108 
21 2 1 7 1.5333 0.00324027 
22 2 1 8 1.54703 0.0844482 
23 4 7 2 1.58131 0.856461 
24 1 7 14 1.1254 0.195717 
25 1 7 15 1.14261 0.549949 
26 2 8 9 1.55703 0.209376 
27 1 8 16 1.10363 0.00236678 
28 1 8 17 1.11848 0.101785 
29 4 9 10 1.7686 10.6813 
30 1 9 18 1.08685 0.0710403 
31 1 9 19 1.11211 0.0416465 
32 5 10 12 1.16957 0.96308 
33 3 10 13 1.28401 2.90756 
34 3 2 3 1.38122 0.0946864 
35 5 2 11 1.189 0.148185 
36 6 3 6 0.967326 0.00286486 
37 1 22 29 1.06157 0.580798 
38 1 22 30 1.11796 0.095897 
39 11 23 22 1.63714 8.35605 
40 12 23 31 1.01269 0.00332245 
41 12 23 32 1.02357 0.0826118 
42 13 23 10 1.69137 22.1642 
43 6 13 20 0.944172 0.242971 
ITEM: TIMESTEP
11
ITEM: NUMBER OF ENTRIES
43
ITEM: BOX BOUNDS pp pp pp
-25 25
-25 25
-25 25
ITEM: ENTRIES index c_1[1] c_1[2] c_1[3] c_2[1] c_2[2] 
1 10 24 33 1.01656 0.050823 
2 10 24 34 1.02773 0.209709 
3 7 21 22 1.58832 0.927428 
4 8 21 27 1.13771 0.432246 
5 8 21 28 1.06691 0.429435 
6 7 21 39 1.5282 0.000971374 
7 9 25 24 1.48667 0.304537 
8 7 25 26 1.50319 0.225455 
9 8 25 35 1.13309 0.333276 
10 8 25 36 1.10357 0.002262 
11 8 26 37 1.11273 0.0463356 
12 8 26 38 1.08955 0.046271 
13 7 26 42 1.60639 1.54827 
14 8 39 40 1.14336 0.569157 
15 8 39 41 1.10114 6.8938e-06 
16 7 39 42 1.56942 0.436585 
17 8 42 43 1.0853 0.0877526 
18 8 42 44 1.09103 0.0349581 
19 1 1 5 1.11087 0.032931 
20 1 1 4 1.07304 0.285291 
21 2 1 7 1.52379 0.0116613 
22 2 1 8 1.5561 0.195574 
23 4 7 2 1.57624 0.726297 
24 1 7 14 1.10169 0.000165491 
25 1 7 15 1.14159 0.524333 
26 2 8 9 1.56097 0.273188 
27 1 8 16 1.08757 0.0639632 
28 1 8 17 1.1324 0.319587 
29 4 9 10 1.79357 12.5339 
30 1 9 18 1.10232 0.000598255 
31 1 9 19 1.0962 0.00801761 
32 5 10 12 1.18397 0.288302 
33 3 10 13 1.28761 2.63267 
34 3 2 3 1.39066 0.231044 
35 5 2 11 1.18488 0.259139 
36 6 3 6 0.969801 0.0121307 
37 1 22 29 1.06901 0.37671 
38 1 22 30 1.1112 0.0351758 
39 11 23 22 1.64053 8.62265 
40 12 23 31 1.0297 0.171775 
41 12 23 32 1.02233 0.0684287 
42 13 23 10 1.63524 14.0263 
43 6 13 20 0.938931 0.38555 
ITEM: TIMESTEP
12
ITEM: NUMBER OF ENTRIES
43
ITEM: BOX BOUNDS pp pp pp
-25 25
-25 25
-25 25
ITEM: ENTRIES index c_1[1] c_1[2] c_1[3] c_2[1] c_2[2] 
1 10 24 33 1.00659 0.000163198 
2 10 24 34 1.02959 0.246026 
3 7 21 22 1.58719 0.893682 
4 8 21 27 1.14255 0.548525 
5 8 21 28 1.0669 0.429748 
6 7 21 39 1.53639 0.0121205 
7 9 25 24 1.49216 0.423328 
8 7 25 26 1.51309 0.0881645 
9 8 25 35 1.13861 0.452927 
10 8 25 36 1.10038 0.000131289 
11 8 26 37 1.10732 0.0136061 
12 8 26 38 1.09011 0.0418453 
13 7 26 42 1.60354 1.4408 
14 8 39 40 1.14963 0.74118 
15 8 39 41 1.10762 0.0149243 
16 7 39 42 1.56838 0.414428 
17 8 42 43 1.08892 0.0515908 
18 8 42 44 1.10419 0.00348381 
19 1 1 5 1.12382 0.171657 
20 1 1 4 1.07746 0.200507 
21 2 1 7 1.51605 0.0596717 
22 2 1 8 1.56428 0.332788 
23 4 7 2 1.56916 0.560779 
24 1 7 14 1.07947 0.167063 
25 1 7 15 1.13018 0.277108 
26 2 8 9 1.5656 0.358175 
27 1 8 16 1.07672 0.213554 
28 1 8 17 1.13859 0.452421 
29 4 9 10 1.81315 14.0611 
30 1 9 18 1.11794 0.0957175 
31 1 9 19 1.08159 0.135099 
32 5 10 12 1.19927 0.00639621 
33 3 10 13 1.29719 1.97556 
34 3 2 3 1.39909 0.399394 
35 5 2 11 1.18309 0.317721 
36 6 3 6 0.971484 0.0220441 
37 1 22 29 1.08671 0.0725458 
38 1 22 30 1.10725 0.0133097 
39 11 23 22 1.6421 8.74674 
40 12 23 31 1.04006 0.390824 
41 12 23 32 1.02499 0.100541 
42 13 23 10 1.58444 8.44399 
43 6 13 20 0.949511 0.132634 
ITEM: TIMESTEP
13
ITEM: NUMBER OF ENTRIES
43
ITEM: BOX BOUNDS pp pp pp
-25 25
-25 25
-25 25
ITEM: ENTRIES index c_1[1] c_1[2] c_1[3] c_2[1] c_2[2] 
1 10 24 33 0.998088 0.0297567 
2 10 24 34 1.02373 0.140849 
3 7 21 22 1.58524 0.836298 
4 8 21 27 1.13672 0.410123 
5 8 21 28 1.07961 0.164859 
6 7 21 39 1.54553 0.0704602 
7 9 25 24 1.49628 0.524478 
8 7 25 26 1.52494 0.00772413 
9 8 25 35 1.13359 0.343365 
10 8 25 36 1.0987 0.00183266 
11 8 26 37 1.09986 0.000445804 
12 8 26 38 1.09549 0.0106087 
13 7 26 42 1.59808 1.24535 
14 8 39 40 1.14376 0.579522 
15 8 39 41 1.11374 0.0545935 
16 7 39 42 1.56773 0.401059 
17 8 42 43 1.09781 0.00353733 
18 8 42 44 1.11776 0.0936948 
19 1 1 5 1.13017 0.276914 
20 1 1 4 1.0914 0.0324235 
21 2 1 7 1.51054 0.117303 
22 2 1 8 1.57112 0.473866 
23 4 7 2 1.56017 0.379399 
24 1 7 14 1.06568 0.462129 
25 1 7 15 1.11117 0.034958 
26 2 8 9 1.57084 0.467608 
27 1 8 16 1.07494 0.246903 
28 1 8 17 1.13551 0.383742 
29 4 9 10 1.82616 15.1118 
30 1 9 18 1.12854 0.247712 
31 1 9 19 1.07324 0.281227 
32 5 10 12 1.21427 0.124577 
33 3 10 13 1.31353 1.09456 
34 3 2 3 1.40615 0.572751 
35 5 2 11 1.18376 0.295145 
36 6 3 6 0.971601 0.0228376 
37 1 22 29 1.10743 0.0140714 
38 1 22 30 1.10657 0.010574 
39 11 23 22 1.64177 8.72043 
40 12 23 31 1.03946 0.375939 
41 12 23 32 1.03022 0.180816 
42 13 23 10 1.54103 4.80307 
43 6 13 20 0.970582 0.0163737 
ITEM: TIMESTEP
14
ITEM: NUMBER OF ENTRIES
43
ITEM: BOX BOUNDS pp pp pp
-25 25
-25 25
-25 25
ITEM: ENTRIES index c_1[1] c_1[2] c_1[3] c_2[1] c_2[2] 
1 10 24 33 0.994661 0.0615938 
2 10 24 34 1.01258 0.0199308 
3 7 21 22 1.583 0.772406 
4 8 21 27 1.12175 0.142453 
5 8 21 28 1.10028 0.000180136 
6 7 21 39 1.55525 0.183248 
7 9 25 24 1.49891 0.594097 
8 7 25 26 1.53816 0.0197078 
9 8 25 35 1.1209 0.13132 
10 8 25 36 1.09922 0.00109344 
11 8 26 37 1.09293 0.0228269 
12 8 26 38 1.10355 0.00222427 
13 7 26 42 1.59059 0.997562 
14 8 39 40 1.12731 0.226614 
15 8 39 41 1.11764 0.0923648 
16 7 39 42 1.56783 0.403009 
17 8 42 43 1.109 0.0217413 
18 8 42 44 1.12788 0.236221 
19 1 1 5 1.129 0.255895 
20 1 1 4 1.10994 0.0270675 
21 2 1 7 1.50759 0.156249 
22 2 1 8 1.57641 0.598362 
23 4 7 2 1.54953 0.207844 
24 1 7 14 1.06541 0.469434 
25 1 7 15 1.09121 0.03372 
26 2 8 9 1.57666 0.604635 
27 1 8 16 1.08296 0.116493 
28 1 8 17 1.124 0.174298 
29 4 9 10 1.83203 15.5958 
30 1 9 18 1.13049 0.282986 
31 1 9 19 1.07447 0.256172 
32 5 10 12 1.22758 0.525885 
33 3 10 13 1.33727 0.299703 
34 3 2 3 1.41165 0.726787 
35 5 2 11 1.18673 0.205297 
36 6 3 6 0.970098 0.013672 
37 1 22 29 1.12579 0.201722 
38 1 22 30 1.10889 0.0211648 
39 11 23 22 1.63962 8.55029 
40 12 23 31 1.02956 0.169325 
41 12 23 32 1.03643 0.304459 
42 13 23 10 1.50627 2.59183 
43 6 13 20 0.992137 0.367585 
ITEM: TIMESTEP
15
ITEM: NUMBER OF ENTRIES
43
ITEM: BOX BOUNDS pp pp pp
-25 25
-25 25
-25 25
ITEM: ENTRIES index c_1[1] c_1[2] c_1[3] c_2[1] c_2[2] 
1 10 24 33 0.998149 0.0292899 
2 10 24 34 1.00071 0.0132186 
3 7 21 22 1.58098 0.716898 
4 8 21 27 1.10168 0.000159735 
5 8 21 28 1.12199 0.145804 
6 7 21 39 1.56507 0.347857 
7 9 25 24 1.49994 0.622454 
8 7 25 26 1.55211 0.14126 
9 8 25 35 1.10452 0.00424488 
10 8 25 36 1.10191 0.000286067 
11 8 26 37 1.08908 0.0502374 
12 8 26 38 1.11205 0.0412116 
13 7 26 42 1.58171 0.736703 
14 8 39 40 1.10461 0.004454 
15 8 39 41 1.11811 0.0975642 
16 7 39 42 1.56883 0.423949 
17 8 42 43 1.11927 0.110991 
18 8 42 44 1.1319 0.309696 
19 1 1 5 1.12133 0.136878 
20 1 1 4 1.12719 0.224635 
21 2 1 7 1.50744 0.1584 
22 2 1 8 1.58 0.690756 
23 4 7 2 1.53768 0.0753084 
24 1 7 14 1.07873 0.179009 
25 1 7 15 1.07484 0.248816 
26 2 8 9 1.58291 0.769784 
27 1 8 16 1.098 0.00311982 
28 1 8 17 1.10713 0.012798 
29 4 9 10 1.83079 15.4931 
30 1 9 18 1.1222 0.14861 
31 1 9 19 1.08591 0.0809729 
32 5 10 12 1.23648 0.936513 
33 3 10 13 1.36972 0.00847526 
34 3 2 3 1.41546 0.843223 
35 5 2 11 1.19156 0.0948926 
36 6 3 6 0.967642 0.00369213 
37 1 22 29 1.13682 0.412331 
38 1 22 30 1.1133 0.0509018 
39 11 23 22 1.63589 8.25818 
40 12 23 31 1.01374 0.00641036 
41 12 23 32 1.04283 0.463147 
42 13 23 10 1.48086 1.37869 
43 6 13 20 1.00522 0.783229 
ITEM: TIMESTEP
16
ITEM: NUMBER OF ENTRIES
43
ITEM: BOX BOUNDS pp pp pp
-25 25
-25 25
-25 25
ITEM: ENTRIES index c_1[1] c_1[2] c_1[3] c_2[1] c_2[2] 
1 10 24 33 1.0072 0.000670628 
2 10 24 34 0.99326 0.0780131 
3 7 21 22 1.57957 0.679265 
4 8 21 27 1.08253 0.122135 
5 8 21 28 1.13843 0.448792 
6 7 21 39 1.57438 0.54896 
7 9 25 24 1.49935 0.606074 
8 7 25 26 1.56614 0.36897 
9 8 25 35 1.08846 0.0555946 
10 8 25 36 1.106 0.00854742 
11 8 26 37 1.08989 0.0435346 
12 8 26 38 1.11877 0.105199 
13 7 26 42 1.57216 0.497122 
14 8 39 40 1.08225 0.1259 
15 8 39 41 1.11493 0.0650734 
16 7 39 42 1.57066 0.463628 
17 8 42 43 1.12609 0.206574 
18 8 42 44 1.12885 0.253206 
19 1 1 5 1.10972 0.0257843 
20 1 1 4 1.13832 0.446156 
21 2 1 7 1.51012 0.122437 
22 2 1 8 1.58185 0.74065 
23 4 7 2 1.52534 0.00663343 
24 1 7 14 1.10064 4.56689e-05 
25 1 7 15 1.06778 0.407139 
26 2 8 9 1.58854 0.934225 
27 1 8 16 1.11514 0.067096 
28 1 8 17 1.08981 0.0442034 
29 4 9 10 1.8231 14.8617 
30 1 9 18 1.10461 0.00445551 
31 1 9 19 1.10378 0.00264518 
32 5 10 12 1.23868 1.05445 
33 3 10 13 1.41116 0.712572 
34 3 2 3 1.41757 0.911219 
35 5 2 11 1.19758 0.0168311 
36 6 3 6 0.965298 4.73086e-05 
37 1 22 29 1.13799 0.438698 
38 1 22 30 1.11843 0.101229 
39 11 23 22 1.63174 7.93779 
40 12 23 31 0.995314 0.103212 
41 12 23 32 1.04987 0.672698 
42 13 23 10 1.46525 0.811111 
43 6 13 20 1.00484 0.769197 
ITEM: TIMESTEP
17
ITEM: NUMBER OF ENTRIES
43
ITEM: BOX BOUNDS pp pp pp
-25 25
-25 25
-25 25
ITEM: ENTRIES index c_1[1] c_1[2] c_1[3] c_2[1] c_2[2] 
1 10 24 33 1.01817 0.0671994 
2 10 24 34 0.99367 0.0729947 
3 7 21 22 1.57938 0.674306 
4 8 21 27 1.07071 0.336533 
5 8 21 28 1.14547 0.624755 
6 7 21 39 1.58253 0.759398 
7 9 25 24 1.49721 0.548484 
8 7 25 26 1.57966 0.681781 
9 8 25 35 1.07742 0.201219 
10 8 25 36 1.11029 0.029228 
11 8 26 37 1.09535 0.0111442 
12 8 26 38 1.12186 0.143968 
13 7 26 42 1.56262 0.302279 
14 8 39 40 1.06766 0.410161 
15 8 39 41 1.10892 0.0213024 
16 7 39 42 1.57302 0.516988 
17 8 42 43 1.12756 0.230765 
18 8 42 44 1.11958 0.114764 
19 1 1 5 1.09765 0.00389221 
20 1 1 4 1.14053 0.498453 
21 2 1 7 1.51547 0.0648368 
22 2 1 8 1.5819 0.741846 
23 4 7 2 1.5134 0.0118716 
24 1 7 14 1.12376 0.170768 
25 1 7 15 1.07273 0.291887 
26 2 8 9 1.59261 1.06203 
27 1 8 16 1.12923 0.259978 
28 1 8 17 1.07761 0.197893 
29 4 9 10 1.81062 13.86 
30 1 9 18 1.08414 0.101505 
31 1 9 19 1.12148 0.138876 
32 5 10 12 1.24064 1.16486 
33 3 10 13 1.45388 2.4126 
34 3 2 3 1.41807 0.927314 
35 5 2 11 1.20397 0.00329277 
36 6 3 6 0.964072 0.000459319 
37 1 22 29 1.12907 0.257051 
38 1 22 30 1.12269 0.155396 
39 11 23 22 1.62763 7.62424 
40 12 23 31 0.982123 0.383384 
41 12 23 32 1.05513 0.851909 
42 13 23 10 1.45813 0.599434 
43 6 13 20 0.992422 0.375117 
ITEM: TIMESTEP
18
ITEM: NUMBER OF ENTRIES
43
ITEM: BOX BOUNDS pp pp pp
-25 25
-25 25
-25 25
ITEM: ENTRIES index c_1[1] c_1[2] c_1[3] c_2[1] c_2[2] 
1 10 24 33 1.02684 0.193194 
2 10 24 34 1.00178 0.00837791 
3 7 21 22 1.58091 0.714959 
4 8 21 27 1.07056 0.339942 
5 8 21 28 1.1417 0.527064 
6 7 21 39 1.58897 0.947283 
7 9 25 24 1.49372 0.460422 
8 7 25 26 1.59214 1.04688 
9 8 25 35 1.07544 0.237285 
10 8 25 36 1.11355 0.0529555 
11 8 26 37 1.1038 0.00269815 
12 8 26 38 1.12049 0.126101 
13 7 26 42 1.55371 0.162 
14 8 39 40 1.06622 0.447591 
15 8 39 41 1.10179 0.000215503 
16 7 39 42 1.57543 0.57443 
17 8 42 43 1.12308 0.160924 
18 8 42 44 1.10657 0.0105745 
19 1 1 5 1.08888 0.0519288 
20 1 1 4 1.1334 0.339487 
21 2 1 7 1.52312 0.0143468 
22 2 1 8 1.58007 0.692556 
23 4 7 2 1.50289 0.0782784 
24 1 7 14 1.14127 0.516583 
25 1 7 15 1.08796 0.0602293 
26 2 8 9 1.59632 1.18477 
27 1 8 16 1.13635 0.401779 
28 1 8 17 1.0749 0.24764 
29 4 9 10 1.79368 12.5426 
30 1 9 18 1.0679 0.40409 
31 1 9 19 1.1334 0.33956 
32 5 10 12 1.24274 1.28883 
33 3 10 13 1.49669 4.88285 
34 3 2 3 1.41706 0.894558 
35 5 2 11 1.20994 0.0527502 
36 6 3 6 0.964466 0.000152038 
37 1 22 29 1.11336 0.0513779 
38 1 22 30 1.12483 0.18685 
39 11 23 22 1.62174 7.18374 
40 12 23 31 0.97963 0.457654 
41 12 23 32 1.05771 0.947021 
42 13 23 10 1.45875 0.616584 
43 6 13 20 0.98159 0.140852 
ITEM: TIMESTEP
19
ITEM: NUMBER OF ENTRIES
43
ITEM: BOX BOUNDS pp pp pp
-25 25
-25 25
-25 25
ITEM: ENTRIES index c_1[1] c_1[2] c_1[3] c_2[1] c_2[2] 
1 10 24 33 1.0301 0.256547 
2 10 24 34 1.01397 0.0290875 
3 7 21 22 1.58419 0.805876 
4 8 21 27 1.08221 0.126568 
5 8 21 28 1.13317 0.334871 
6 7 21 39 1.59338 1.08687 
7 9 25 24 1.48921 0.35727 
8 7 25 26 1.60315 1.42667 
9 8 25 35 1.08337 0.11112 
10 8 25 36 1.11489 0.0647814 
11 8 26 37 1.11264 0.0456798 
12 8 26 38 1.11509 0.0666025 
13 7 26 42 1.54588 0.0736071 
14 8 39 40 1.07855 0.181869 
15 8 39 41 1.09571 0.00977 
16 7 39 42 1.57744 0.624218 
17 8 42 43 1.11355 0.052979 
18 8 42 44 1.0935 0.0197235 
19 1 1 5 1.08645 0.0752095 
20 1 1 4 1.11882 0.105727 
21 2 1 7 1.53253 0.00190703 
22 2 1 8 1.57643 0.598829 
23 4 7 2 1.49478 0.171095 
24 1 7 14 1.14859 0.71098 
25 1 7 15 1.1082 0.0176386 
26 2 8 9 1.59946 1.29366 
27 1 8 16 1.13453 0.362793 
28 1 8 17 1.08287 0.117606 
29 4 9 10 1.77301 11.0014 
30 1 9 18 1.06226 0.559793 
31 1 9 19 1.13727 0.42239 
32 5 10 12 1.24484 1.41849 
33 3 10 13 1.53865 7.92591 
34 3 2 3 1.41475 0.82119 
35 5 2 11 1.21476 0.134741 
36 6 3 6 0.966258 0.000840431 
37 1 22 29 1.09526 0.0115033 
38 1 22 30 1.12433 0.179219 
39 11 23 22 1.61401 6.6201 
40 12 23 31 0.984831 0.310568 
41 12 23 32 1.05823 0.966404 
42 13 23 10 1.4657 0.825734 
43 6 13 20 0.97398 0.042021 
ITEM: TIMESTEP
20
ITEM: NUMBER OF ENTRIES
43
ITEM: BOX BOUNDS pp pp pp
-25 25
-25 25
-25 25
ITEM: ENTRIES index c_1[1] c_1[2] c_1[3] c_2[1] c_2[2] 
1 10 24 33 1.02685 0.19341 
2 10 24 34 1.02508 0.162661 
3 7 21 22 1.58909 0.951096 
4 8 21 27 1.10096 4.79028e-07 
5 8 21 28 1.1231 0.161268 
6 7 21 39 1.59575 1.16569 
7 9 25 24 1.48408 0.254812 
8 7 25 26 1.61239 1.78469 
9 8 25 35 1.09841 0.00232143 
10 8 25 36 1.11405 0.0571993 
11 8 26 37 1.11917 0.109881 
12 8 26 38 1.10718 0.0130066 
13 7 26 42 1.53942 0.0261759 
14 8 39 40 1.10011 0.000271314 
15 8 39 41 1.09266 0.0244304 
16 7 39 42 1.57868 0.656066 
17 8 42 43 1.10128 2.72894e-05 
18 8 42 44 1.0843 0.0994756 
19 1 1 5 1.09124 0.0335396 
20 1 1 4 1.1008 1.38861e-05 
21 2 1 7 1.54299 0.0495163 
22 2 1 8 1.57118 0.475108 
23 4 7 2 1.48984 0.246057 
24 1 7 14 1.14387 0.582416 
25 1 7 15 1.12709 0.222936 
26 2 8 9 1.60175 1.37557 
27 1 8 16 1.12411 0.176003 
28 1 8 17 1.09886 0.00159069 
29 4 9 10 1.74947 9.33432 
30 1 9 18 1.07007 0.351191 
31 1 9 19 1.13354 0.342394 
32 5 10 12 1.24697 1.55539 
33 3 10 13 1.57891 11.4008 
34 3 2 3 1.41138 0.719023 
35 5 2 11 1.21787 0.206747 
36 6 3 6 0.96863 0.00695618 
37 1 22 29 1.07891 0.175994 
38 1 22 30 1.12111 0.134042 
39 11 23 22 1.60471 5.96444 
40 12 23 31 0.993873 0.124874 
41 12 23 32 1.05724 0.929392 
42 13 23 10 1.47754 1.24637 
43 6 13 20 0.971238 0.020416 
ITEM: TIMESTEP
21
ITEM: NUMBER OF ENTRIES
43
ITEM: BOX BOUNDS pp pp pp
-25 25
-25 25
-25 25
ITEM: ENTRIES index c_1[1] c_1[2] c_1[3] c_2[1] c_2[2] 
1 10 24 33 1.0182 0.0675108 
2 10 24 34 1.03071 0.269314 
3 7 21 22 1.59541 1.15414 
4 8 21 27 1.12045 0.125535 
5 8 21 28 1.11339 0.0516563 
6 7 21 39 1.5963 1.18427 
7 9 25 24 1.47868 0.16497 
8 7 25 26 1.6196 2.08887 
9 8 25 35 1.11556 0.0710436 
10 8 25 36 1.11135 0.0361795 
11 8 26 37 1.12142 0.138102 
12 8 26 38 1.09905 0.00131107 
13 7 26 42 1.53445 0.00590178 
14 8 39 40 1.1225 0.152731 
15 8 39 41 1.09374 0.0184323 
16 7 39 42 1.57896 0.663434 
17 8 42 43 1.08963 0.0456021 
18 8 42 44 1.08184 0.131582 
19 1 1 5 1.10154 0.000102192 
20 1 1 4 1.0847 0.0947316 
21 2 1 7 1.55374 0.162386 
22 2 1 8 1.56471 0.341068 
23 4 7 2 1.4885 0.268763 
24 1 7 14 1.12818 0.24144 
25 1 7 15 1.13928 0.468507 
26 2 8 9 1.60313 1.42588 
27 1 8 16 1.10775 0.0154963 
28 1 8 17 1.11768 0.0928217 
29 4 9 10 1.72383 7.63053 
30 1 9 18 1.08886 0.052134 
31 1 9 19 1.12434 0.179455 
32 5 10 12 1.24898 1.69018 