unknown system                          
           1
    20.183162    1.610013   -0.075873
   -10.699659   18.532322    0.275059
    -0.000000   -0.000000   21.124790
   Te   Se
  77 115
Direct configuration=     1
   0.02137972  0.03890840  0.68709538
   0.00128786  0.57185663  0.44130835
   0.99069518  0.82527356  0.17424045
   0.04603614  0.85646816  0.42972019
   0.01188512  0.80695549  0.67817534
   0.97046181  0.78696775  0.95299944
   0.02513066  0.92737228  0.84709044
   0.03553722  0.23776048  0.08166832
   0.03388936  0.23248895  0.58365503
   0.04737682  0.50273659  0.34017213
   0.09228248  0.79165746  0.33199031
   0.04157401  0.71700426  0.58358264
   0.17340366  0.19820032  0.99745154
   0.18126449  0.44357910  0.00356928
   0.23330743  0.43990533  0.27408500
   0.16027314  0.42492017  0.50055102
   0.16484292  0.40978505  0.77002277
   0.18419259  0.72350671  0.48816500
   0.24194989  0.95634613  0.01622923
   0.16637237  0.94982208  0.26029175
   0.24009263  0.55142397  0.43559781
   0.21747311  0.07797725  0.17810668
   0.23992713  0.03271791  0.64564424
   0.26545360  0.06027697  0.92381139
   0.26918283  0.31328292  0.93007397
   0.31445472  0.84834964  0.43234947
   0.26137081  0.24092599  0.33125608
   0.31689948  0.25767285  0.83993398
   0.33201047  0.76740840  0.08766651
   0.28563321  0.78062231  0.84497515
   0.43336946  0.20126706  0.48951632
   0.44900326  0.17362831  0.74157146
   0.44092308  0.49161957  0.27492755
   0.44554223  0.93674202  0.00595167
   0.51018210  0.01031692  0.24013692
   0.54359327  0.09720573  0.13400805
   0.49864215  0.10210226  0.41905235
   0.49313458  0.33150745  0.40857509
   0.48317958  0.29588471  0.68021485
   0.47340087  0.27556976  0.92454665
   0.50387087  0.55490018  0.16224226
   0.50340507  0.51568131  0.67755568
   0.50032015  0.79687215  0.40987003
   0.53877859  0.01308232  0.80292016
   0.56141979  0.26189943  0.57633575
   0.55038164  0.21247861  0.84720243
   0.54029891  0.47460395  0.09246158
   0.55967532  0.48939833  0.35589859
   0.56316471  0.71173201  0.08565838
   0.55128414  0.72734034  0.30265167
   0.53667239  0.75984827  0.58766967
   0.70230127  0.23475565  0.49793621
   0.65057745  0.41631942  0.00216357
   0.71261456  0.45332069  0.27130730
   0.65872530  0.63839560  0.26354045
   0.71344432  0.71387094  0.76145610
   0.73178029  0.94349326  0.25512519
   0.78311104  0.33944366  0.14615873
   0.77000623  0.29409411  0.90085960
   0.73125121  0.55582400  0.44815797
   0.75031025  0.02336430  0.64629997
   0.74959539  0.04389982  0.89357398
   0.82484547  0.25765284  0.08655931
   0.78551404  0.50219099  0.09297037
   0.80513098  0.51052586  0.36282663
   0.81722679  0.48673762  0.58691695
   0.78594428  0.46761208  0.84119806
   0.78517531  0.73521472  0.10554332
   0.75576319  0.71245492  0.35623471
   0.83331525  0.76554057  0.59898239
   0.84628988  0.75030406  0.82979365
   0.95310642  0.49190758  0.25153610
   0.94463350  0.45442948  0.51114628
   0.87907760  0.36927270  0.77163088
   0.93915609  0.69218742  0.74290923
   0.89286880  0.89888318  0.01477101
   0.93010580  0.91553413  0.75982122
   0.97419734  0.03148740  0.19511962
   0.99915378  0.04700932  0.44191642
   0.97773737  0.98466187  0.93521513
   0.96398728  0.26334730  0.17551847
   0.00073427  0.31563292  0.41488635
   0.98943732  0.30409615  0.67770567
   0.99373454  0.27882166  0.90951539
   0.03868715  0.58395912  0.14934923
   0.97670020  0.46879856  0.68861748
   0.92934217  0.50827158  0.90173070
   0.00658708  0.99887234  0.10646915
   0.06351403  0.01907402  0.35908679
   0.02423355  0.96349690  0.59159308
   0.05253918  0.27024016  0.33267741
   0.03699953  0.24063081  0.82614097
   0.02041297  0.48711354  0.08784204
   0.02717387  0.43779072  0.59328934
   0.99845481  0.48424650  0.81245429
   0.03475537  0.75566652  0.11289411
   0.00191713  0.73156115  0.85342684
   0.17861287  0.23272431  0.24137853
   0.22968640  0.23565033  0.48710741
   0.21243730  0.21605480  0.74478539
   0.19356327  0.72868310  0.03485405
   0.25100908  0.74041979  0.26647035
   0.19927876  0.72955714  0.75465271
   0.23244515  0.93226248  0.49160268
   0.20609267  0.95400066  0.74245179
   0.27417144  0.53393076  0.17024458
   0.22640457  0.50894154  0.68568200
   0.23477339  0.52651792  0.91837371
   0.25183609  0.03333076  0.41853166
   0.23563037  0.30956293  0.15902691
   0.26682278  0.33390596  0.40983353
   0.24866536  0.29502102  0.67217039
   0.32569613  0.83037133  0.18014227
   0.23080793  0.81370511  0.67476079
   0.23455117  0.81383168  0.95402138
   0.30442376  0.05419793  0.10398316
   0.29190839  0.00169764  0.32740928
   0.31564914  0.99502222  0.58382313
   0.29685104  0.00243712  0.81667312
   0.26184759  0.23287720  0.08516792
   0.31377991  0.26680621  0.58879247
   0.30524822  0.48916047  0.07214913
   0.32719846  0.51814773  0.36632812
   0.24235312  0.44532148  0.60491699
   0.28965521  0.47903941  0.85470930
   0.32531576  0.75965286  0.36024082
   0.25794249  0.75069360  0.59028953
   0.42227822  0.19133746  0.01782671
   0.43294627  0.18775800  0.26467150
   0.44404020  0.46772253  0.99803018
   0.45289817  0.43751715  0.51279382
   0.48879254  0.45750975  0.78556587
   0.44102244  0.66000740  0.01114626
   0.44651002  0.68688293  0.22168880
   0.43905320  0.72117824  0.49279047
   0.43949956  0.69142331  0.77018541
   0.45223390  0.98930898  0.51743864
   0.40840690  0.96298876  0.75789424
   0.45779345  0.05063557  0.67209952
   0.50973239  0.04201660  0.92509504
   0.40798207  0.25973097  0.17980780
   0.53447173  0.54785733  0.45872490
   0.50161544  0.56672179  0.93378726
   0.51718752  0.78464949  0.15304914
   0.48181782  0.78231876  0.69087172
   0.49882147  0.75722096  0.94108804
   0.56002921  0.99075238  0.07706217
   0.57301085  0.04604893  0.34643437
   0.54163303  0.03894731  0.59195470
   0.50439911  0.24866736  0.11739443
   0.53203614  0.28159507  0.31494983
   0.54351597  0.45582567  0.59378604
   0.58271953  0.55449962  0.84745236
   0.55012622  0.74488871  0.82859214
   0.71161063  0.24017923  0.00342446
   0.69024873  0.24291760  0.23892675
   0.68269803  0.19873278  0.72562922
   0.69716519  0.45665238  0.52773315
   0.70299614  0.47055318  0.73828355
   0.70531142  0.69776343  0.99529596
   0.71522427  0.67402998  0.54345791
   0.72096049  0.96264260  0.98667842
   0.74457996  0.90295541  0.51295462
   0.73222896  0.93305602  0.74717488
   0.76135564  0.32536594  0.41953189
   0.76746323  0.29202452  0.67076191
   0.72589149  0.54868088  0.16920659
   0.78371137  0.56047304  0.66713627
   0.75963872  0.52551755  0.92799228
   0.79909359  0.05846589  0.17675093
   0.75381430  0.97515907  0.43299568
   0.69429481  0.74727652  0.18727708
   0.67895421  0.73108617  0.45978296
   0.75903477  0.80858140  0.67690982
   0.76472243  0.78256946  0.92272703
   0.77088546  0.25509417  0.33490875
   0.80297903  0.25342218  0.57721073
   0.74703234  0.19498943  0.82411051
   0.80706661  0.00730430  0.07650989
   0.83638990  0.96939079  0.33999660
   0.83964174  0.99713536  0.57525817
   0.82157013  0.00711345  0.81269641
   0.94543406  0.18351221  0.99044627
   0.95418253  0.19620907  0.26628415
   0.95937251  0.21047213  0.49018643
   0.93734286  0.20453749  0.73927609
   0.93081798  0.44329050  0.99132026
   0.93358654  0.69408669  0.04416284
   0.97635870  0.74814769  0.27846336
   0.96858015  0.74327684  0.48662615
   0.96792802  0.96213116  0.29220570
   0.93063042  0.94014804  0.50633156
unknown system                          
           1
    20.188575    1.646643   -0.170853
   -10.706386   18.543973    0.295217
    -0.000000   -0.000000   21.117232
   Te   Se
  77 115
Direct configuration=     2
   0.02127906  0.03885733  0.68714528
   0.00113025  0.57174963  0.44131715
   0.99080231  0.82527755  0.17438719
   0.04598430  0.85643608  0.42966771
   0.01202383  0.80708291  0.67822694
   0.97036916  0.78680927  0.95284656
   0.02510380  0.92729295  0.84715690
   0.03580854  0.23783148  0.08181510
   0.03388542  0.23240301  0.58369038
   0.04727254  0.50267068  0.34002498
   0.09236025  0.79171651  0.33200565
   0.04164877  0.71701341  0.58364138
   0.17337255  0.19809833  0.99736299
   0.18141960  0.44352314  0.00353938
   0.23337338  0.43992117  0.27398209
   0.16020599  0.42487004  0.50065117
   0.16472365  0.40975139  0.76983676
   0.18436503  0.72360175  0.48833839
   0.24193460  0.95641157  0.01629792
   0.16652176  0.94992103  0.26025488
   0.23996748  0.55153017  0.43551985
   0.21757516  0.07778889  0.17809999
   0.24005795  0.03297882  0.64561722
   0.26523682  0.06035187  0.92377833
   0.26912559  0.31335508  0.93012965
   0.31438260  0.84853155  0.43233461
   0.26159104  0.24114062  0.33114336
   0.31681557  0.25766170  0.83994416
   0.33204123  0.76744009  0.08775784
   0.28548193  0.78041275  0.84488579
   0.43320881  0.20127943  0.48938941
   0.44905108  0.17337679  0.74166966
   0.44059981  0.49145955  0.27494443
   0.44528520  0.93654358  0.00595722
   0.51026396  0.01030444  0.24030295
   0.54367055  0.09731043  0.13411115
   0.49869473  0.10213443  0.41898694
   0.49294686  0.33130478  0.40859394
   0.48327011  0.29591585  0.68059285
   0.47325953  0.27525957  0.92439840
   0.50395207  0.55511174  0.16219156
   0.50350387  0.51564312  0.67766728
   0.50051489  0.79686052  0.40977431
   0.53870263  0.01298146  0.80279010
   0.56129520  0.26196163  0.57650317
   0.55032655  0.21234934  0.84731670
   0.54030589  0.47477709  0.09241903
   0.55976892  0.48954947  0.35602917
   0.56337048  0.71182394  0.08570687
   0.55129108  0.72732785  0.30268635
   0.53674086  0.76003475  0.58777016
   0.70208622  0.23489365  0.49828087
   0.65053988  0.41641229  0.00215679
   0.71242104  0.45317240  0.27156608
   0.65872081  0.63857929  0.26352229
   0.71347844  0.71387182  0.76145738
   0.73166403  0.94345089  0.25502864
   0.78315157  0.33928784  0.14623511
   0.76988929  0.29413390  0.90083623
   0.73118606  0.55588683  0.44815294
   0.75018388  0.02332571  0.64618287
   0.74975895  0.04392070  0.89342264
   0.82480751  0.25773450  0.08655626
   0.78529705  0.50214563  0.09292942
   0.80507539  0.51056024  0.36273683
   0.81714571  0.48673906  0.58681194
   0.78604640  0.46765078  0.84120512
   0.78532220  0.73530986  0.10576197
   0.75592904  0.71256749  0.35628191
   0.83317310  0.76543598  0.59899299
   0.84630803  0.75046457  0.82968397
   0.95296443  0.49172174  0.25143213
   0.94475114  0.45436189  0.51118340
   0.87881752  0.36913117  0.77162305
   0.93914587  0.69233578  0.74276427
   0.89293226  0.89902730  0.01482815
   0.93004266  0.91548883  0.75972940
   0.97424479  0.03179739  0.19535935
   0.99894525  0.04710336  0.44211584
   0.97778358  0.98490785  0.93508106
   0.96380797  0.26302156  0.17577994
   0.00072738  0.31584188  0.41495137
   0.98946651  0.30423854  0.67761614
   0.99389729  0.27884513  0.90959762
   0.03861018  0.58379820  0.14911206
   0.97692886  0.46875503  0.68853363
   0.92928825  0.50815215  0.90173508
   0.00648620  0.99861541  0.10636441
   0.06347677  0.01882589  0.35920132
   0.02387288  0.96343388  0.59182800
   0.05279276  0.27049178  0.33290778
   0.03689184  0.24057239  0.82602196
   0.02041947  0.48716232  0.08777193
   0.02651922  0.43758411  0.59321091
   0.99822538  0.48394625  0.81241515
   0.03441050  0.75549757  0.11278883
   0.00166004  0.73141758  0.85358227
   0.17889137  0.23290678  0.24095066
   0.22940559  0.23574187  0.48700831
   0.21278482  0.21644501  0.74468456
   0.19355565  0.72872416  0.03486272
   0.25087194  0.74047015  0.26631556
   0.19924572  0.72965417  0.75484711
   0.23248124  0.93196543  0.49139882
   0.20608807  0.95417437  0.74249432
   0.27401383  0.53403801  0.17022421
   0.22632435  0.50880968  0.68561065
   0.23484099  0.52641074  0.91836799
   0.25191739  0.03355919  0.41837039
   0.23566686  0.30948828  0.15897636
   0.26659987  0.33391699  0.40983517
   0.24886311  0.29509472  0.67212840
   0.32566423  0.83079016  0.18042750
   0.23077720  0.81376049  0.67465506
   0.23434573  0.81354735  0.95395571
   0.30445859  0.05478341  0.10381553
   0.29202634  0.00156352  0.32758390
   0.31543601  0.99499737  0.58349346
   0.29693266  0.00259227  0.81676184
   0.26196686  0.23298693  0.08502557
   0.31379716  0.26702368  0.58887399
   0.30541466  0.48936525  0.07167320
   0.32729277  0.51829929  0.36634230
   0.24215296  0.44532573  0.60497082
   0.28949827  0.47889133  0.85477663
   0.32535127  0.75962613  0.36022756
   0.25769798  0.75051500  0.59038295
   0.42233733  0.19142600  0.01800918
   0.43278308  0.18777800  0.26476246
   0.44405923  0.46793049  0.99816242
   0.45285339  0.43792428  0.51301882
   0.48874643  0.45750455  0.78555485
   0.44103386  0.66016823  0.01110153
   0.44649202  0.68690224  0.22160175
   0.43917209  0.72122593  0.49293413
   0.43925653  0.69136613  0.77033737
   0.45241646  0.98966608  0.51724893
   0.40861178  0.96315214  0.75801163
   0.45797964  0.05091946  0.67202052
   0.50984746  0.04191232  0.92501957
   0.40770583  0.25948893  0.17987945
   0.53474764  0.54789257  0.45893136
   0.50152578  0.56671384  0.93369142
   0.51718729  0.78469969  0.15287878
   0.48187632  0.78204829  0.69091205
   0.49869826  0.75709149  0.94087699
   0.56007557  0.99069468  0.07706689
   0.57297448  0.04595456  0.34645358
   0.54158047  0.03868218  0.59230808
   0.50444220  0.24871291  0.11719469
   0.53218634  0.28171710  0.31514760
   0.54343495  0.45564867  0.59357967
   0.58283857  0.55463496  0.84751544
   0.55018139  0.74479219  0.82836667
   0.71173112  0.24003013  0.00320829
   0.69018976  0.24293526  0.23867471
   0.68269594  0.19852360  0.72571292
   0.69695758  0.45667852  0.52805502
   0.70308641  0.47065735  0.73844051
   0.70516478  0.69780458  0.99527958
   0.71544952  0.67433598  0.54339615
   0.72098096  0.96238420  0.98657146
   0.74457303  0.90274784  0.51298727
   0.73256028  0.93322208  0.74757056
   0.76148152  0.32532260  0.41951119
   0.76723211  0.29195328  0.67076804
   0.72590955  0.54873316  0.16909086
   0.78382339  0.56071025  0.66711177
   0.75981036  0.52568320  0.92801541
   0.79924194  0.05836297  0.17672865
   0.75373385  0.97490689  0.43303194
   0.69409053  0.74712665  0.18733757
   0.67879100  0.73099448  0.45968619
   0.75929102  0.80844488  0.67667426
   0.76470703  0.78272252  0.92285716
   0.77073574  0.25477966  0.33507682
   0.80307645  0.25357653  0.57709876
   0.74716702  0.19494131  0.82401409
   0.80709204  0.00711575  0.07645239
   0.83632046  0.96960048  0.33981493
   0.83940448  0.99705847  0.57542906
   0.82155506  0.00713551  0.81293786
   0.94547409  0.18342502  0.99072965
   0.95424112  0.19616240  0.26651652
   0.95962461  0.21044933  0.49020534
   0.93717908  0.20453098  0.73951565
   0.93077932  0.44344462  0.99141877
   0.93337981  0.69383482  0.04412861
   0.97646866  0.74827683  0.27833884
   0.96889561  0.74342589  0.48660637
   0.96758568  0.96199314  0.29219835
   0.93085142  0.94026205  0.50642565
